
.Version 9.2.2 of ABINIT 
.(MPI version, prepared for a arm_darwin20.2.0_gnu10.2 computer) 

.Copyright (C) 1998-2020 ABINIT group . 
 ABINIT comes with ABSOLUTELY NO WARRANTY.
 It is free software, and you are welcome to redistribute it
 under certain conditions (GNU General Public License,
 see ~abinit/COPYING or http://www.gnu.org/copyleft/gpl.txt).

 ABINIT is a project of the Universite Catholique de Louvain,
 Corning Inc. and other collaborators, see ~abinit/doc/developers/contributors.txt .
 Please read https://docs.abinit.org/theory/acknowledgments for suggested
 acknowledgments of the ABINIT effort.
 For more information, see https://www.abinit.org .

.Starting date : Sun  7 Mar 2021.
- ( at 01h22 )
  
- input  file    -> BS_1.abi
- output file    -> BS_1.abo
- root for input  files -> BS_1i
- root for output files -> BS_1o


 DATASET    1 : space group F-4 3 m (#216); Bravais cF (face-center cubic)
================================================================================
 Values of the parameters that define the memory need for DATASET  1.
     intxc =       0    ionmov =       0      iscf =       7    lmnmax =       6
     lnmax =       6     mgfft =      54  mpssoang =       3    mqgrid =    3001
     natom =       2  nloc_mem =       1    nspden =       1   nspinor =       1
    nsppol =       1      nsym =      24    n1xccc =    2501    ntypat =       2
    occopt =       1   xclevel =       1
-    mband =          15        mffmem =           1         mkmem =           2
       mpw =        5892          nfft =      157464          nkpt =          10
================================================================================
P This job should need less than                      49.365 Mbytes of memory.
  Rough estimation (10% accuracy) of disk space for files :
_ WF disk file :     13.488 Mbytes ; DEN or POT disk file :      1.203 Mbytes.
================================================================================


 DATASET    2 : space group F-4 3 m (#216); Bravais cF (face-center cubic)
================================================================================
 Values of the parameters that define the memory need for DATASET  2.
     intxc =       0    ionmov =       0      iscf =      -2    lmnmax =       6
     lnmax =       6     mgfft =      54  mpssoang =       3    mqgrid =    3001
     natom =       2  nloc_mem =       1    nspden =       1   nspinor =       1
    nsppol =       1      nsym =      24    n1xccc =    2501    ntypat =       2
    occopt =       1   xclevel =       1
-    mband =          20        mffmem =           1         mkmem =          24
       mpw =        5961          nfft =      157464          nkpt =         191
================================================================================
P This job should need less than                      73.196 Mbytes of memory.
  Rough estimation (10% accuracy) of disk space for files :
_ WF disk file :    347.460 Mbytes ; DEN or POT disk file :      1.203 Mbytes.
================================================================================

--------------------------------------------------------------------------------
------------- Echo of variables that govern the present computation ------------
--------------------------------------------------------------------------------
-
- outvars: echo of selected default values                                      
-   iomode0 =  0 , fftalg0 =312 , wfoptalg0 =  0
-
- outvars: echo of global parameters not present in the input file              
-  max_nthreads =    8
-
 -outvars: echo values of preprocessed input variables --------
            acell      1.2182413650E+01  1.2182413650E+01  1.2182413650E+01 Bohr
              amu      1.14820000E+02  1.21753000E+02
        autoparal           1
           diemac      1.60000000E+01
             ecut      4.20000000E+01 Hartree
           enunit1          0
           enunit2          1
-          fftalg         312
           getden1          0
           getden2         -1
             iscf1          7
             iscf2         -2
           istwfk2       3    0    0    0    0    0    0    0    0    0
                         0    0    0    0    0    0    0    0    0    0
                         0    0    0    0    0    0    0    0    0    0
                         0    0    0    0    0    0    0    0    0    0
                         0    0    0    0    0    0    0    0    0    0
                       outvar_i_n : Printing only first  50 k-points.
              ixc       -1012
           jdtset        1    2
              kpt1    -1.25000000E-01 -2.50000000E-01  0.00000000E+00
                      -1.25000000E-01  5.00000000E-01  0.00000000E+00
                      -2.50000000E-01 -3.75000000E-01  0.00000000E+00
                      -1.25000000E-01 -3.75000000E-01  1.25000000E-01
                      -1.25000000E-01  2.50000000E-01  0.00000000E+00
                      -2.50000000E-01  3.75000000E-01  0.00000000E+00
                      -3.75000000E-01  5.00000000E-01  0.00000000E+00
                      -2.50000000E-01  5.00000000E-01  1.25000000E-01
                      -1.25000000E-01  0.00000000E+00  0.00000000E+00
                      -3.75000000E-01  0.00000000E+00  0.00000000E+00
              kpt2     5.00000000E-01  0.00000000E+00  0.00000000E+00
                       4.90000000E-01  0.00000000E+00  0.00000000E+00
                       4.80000000E-01  0.00000000E+00  0.00000000E+00
                       4.70000000E-01  0.00000000E+00  0.00000000E+00
                       4.60000000E-01  0.00000000E+00  0.00000000E+00
                       4.50000000E-01  0.00000000E+00  0.00000000E+00
                       4.40000000E-01  0.00000000E+00  0.00000000E+00
                       4.30000000E-01  0.00000000E+00  0.00000000E+00
                       4.20000000E-01  0.00000000E+00  0.00000000E+00
                       4.10000000E-01  0.00000000E+00  0.00000000E+00
                       4.00000000E-01  0.00000000E+00  0.00000000E+00
                       3.90000000E-01  0.00000000E+00  0.00000000E+00
                       3.80000000E-01  0.00000000E+00  0.00000000E+00
                       3.70000000E-01  0.00000000E+00  0.00000000E+00
                       3.60000000E-01  0.00000000E+00  0.00000000E+00
                       3.50000000E-01  0.00000000E+00  0.00000000E+00
                       3.40000000E-01  0.00000000E+00  0.00000000E+00
                       3.30000000E-01  0.00000000E+00  0.00000000E+00
                       3.20000000E-01  0.00000000E+00  0.00000000E+00
                       3.10000000E-01  0.00000000E+00  0.00000000E+00
                       3.00000000E-01  0.00000000E+00  0.00000000E+00
                       2.90000000E-01  0.00000000E+00  0.00000000E+00
                       2.80000000E-01  0.00000000E+00  0.00000000E+00
                       2.70000000E-01  0.00000000E+00  0.00000000E+00
                       2.60000000E-01  0.00000000E+00  0.00000000E+00
                       2.50000000E-01  0.00000000E+00  0.00000000E+00
                       2.40000000E-01  0.00000000E+00  0.00000000E+00
                       2.30000000E-01  0.00000000E+00  0.00000000E+00
                       2.20000000E-01  0.00000000E+00  0.00000000E+00
                       2.10000000E-01  0.00000000E+00  0.00000000E+00
                       2.00000000E-01  0.00000000E+00  0.00000000E+00
                       1.90000000E-01  0.00000000E+00  0.00000000E+00
                       1.80000000E-01  0.00000000E+00  0.00000000E+00
                       1.70000000E-01  0.00000000E+00  0.00000000E+00
                       1.60000000E-01  0.00000000E+00  0.00000000E+00
                       1.50000000E-01  0.00000000E+00  0.00000000E+00
                       1.40000000E-01  0.00000000E+00  0.00000000E+00
                       1.30000000E-01  0.00000000E+00  0.00000000E+00
                       1.20000000E-01  0.00000000E+00  0.00000000E+00
                       1.10000000E-01  0.00000000E+00  0.00000000E+00
                       1.00000000E-01  0.00000000E+00  0.00000000E+00
                       9.00000000E-02  0.00000000E+00  0.00000000E+00
                       8.00000000E-02  0.00000000E+00  0.00000000E+00
                       7.00000000E-02  0.00000000E+00  0.00000000E+00
                       6.00000000E-02  0.00000000E+00  0.00000000E+00
                       5.00000000E-02  0.00000000E+00  0.00000000E+00
                       4.00000000E-02  0.00000000E+00  0.00000000E+00
                       3.00000000E-02  0.00000000E+00  0.00000000E+00
                       2.00000000E-02  0.00000000E+00  0.00000000E+00
                       1.00000000E-02  0.00000000E+00  0.00000000E+00
                       outvar_i_n : Printing only first  50 k-points.
           kptopt1          1
           kptopt2         -3
         kptrlatt        4   -4    4     -4    4    4     -4   -4    4
          kptrlen1     4.87296546E+01
          kptrlen2     3.00000000E+01
P           mkmem1          2
P           mkmem2         24
            natom           2
            nband1         15
            nband2         20
           nbdbuf1          0
           nbdbuf2          2
           ndtset           2
           ndivsm1          0
           ndivsm2         50
            ngfft          54      54      54
             nkpt1         10
             nkpt2        191
-           npkpt           8
            nstep         100
             nsym          24
           ntypat           2
              occ      2.000000  2.000000  2.000000  2.000000  2.000000  2.000000
                       2.000000  2.000000  2.000000  2.000000  2.000000  2.000000
                       2.000000  2.000000  0.000000
            rprim      0.0000000000E+00  5.0000000000E-01  5.0000000000E-01
                       5.0000000000E-01  0.0000000000E+00  5.0000000000E-01
                       5.0000000000E-01  5.0000000000E-01  0.0000000000E+00
           shiftk      5.00000000E-01  5.00000000E-01  5.00000000E-01
          spgroup         216
           symrel      1  0  0   0  1  0   0  0  1       0 -1  1   0 -1  0   1 -1  0
                      -1  0  0  -1  0  1  -1  1  0       0  1 -1   1  0 -1   0  0 -1
                      -1  0  0  -1  1  0  -1  0  1       0 -1  1   1 -1  0   0 -1  0
                       1  0  0   0  0  1   0  1  0       0  1 -1   0  0 -1   1  0 -1
                      -1  0  1  -1  1  0  -1  0  0       0 -1  0   1 -1  0   0 -1  1
                       1  0 -1   0  0 -1   0  1 -1       0  1  0   0  0  1   1  0  0
                       1  0 -1   0  1 -1   0  0 -1       0 -1  0   0 -1  1   1 -1  0
                      -1  0  1  -1  0  0  -1  1  0       0  1  0   1  0  0   0  0  1
                       0  0 -1   0  1 -1   1  0 -1       1 -1  0   0 -1  1   0 -1  0
                       0  0  1   1  0  0   0  1  0      -1  1  0  -1  0  0  -1  0  1
                       0  0  1   0  1  0   1  0  0       1 -1  0   0 -1  0   0 -1  1
                       0  0 -1   1  0 -1   0  1 -1      -1  1  0  -1  0  1  -1  0  0
           toldfe1     1.00000000E-12 Hartree
           toldfe2     0.00000000E+00 Hartree
           tolwfr1     0.00000000E+00
           tolwfr2     1.00000000E-16
            typat      1  2
              wtk1       0.09375    0.09375    0.09375    0.18750    0.09375    0.09375
                         0.09375    0.18750    0.03125    0.03125
              wtk2       1.00000    1.00000    1.00000    1.00000    1.00000    1.00000
                         1.00000    1.00000    1.00000    1.00000    1.00000    1.00000
                         1.00000    1.00000    1.00000    1.00000    1.00000    1.00000
                         1.00000    1.00000    1.00000    1.00000    1.00000    1.00000
                         1.00000    1.00000    1.00000    1.00000    1.00000    1.00000
                         1.00000    1.00000    1.00000    1.00000    1.00000    1.00000
                         1.00000    1.00000    1.00000    1.00000    1.00000    1.00000
                         1.00000    1.00000    1.00000    1.00000    1.00000    1.00000
                         1.00000    1.00000
                       outvars : Printing only first  50 k-points.
           xangst      0.0000000000E+00  0.0000000000E+00  0.0000000000E+00
                       1.6116639123E+00  1.6116639123E+00  1.6116639123E+00
            xcart      0.0000000000E+00  0.0000000000E+00  0.0000000000E+00
                       3.0456034125E+00  3.0456034125E+00  3.0456034125E+00
             xred      0.0000000000E+00  0.0000000000E+00  0.0000000000E+00
                       2.5000000000E-01  2.5000000000E-01  2.5000000000E-01
            znucl       49.00000   51.00000

================================================================================

 chkinp: Checking input parameters for consistency, jdtset=   1.

 chkinp: Checking input parameters for consistency, jdtset=   2.

================================================================================
== DATASET  1 ==================================================================
-   mpi_nproc: 8, omp_nthreads: 8 (-1 if OMP is not activated)
-    --> not optimal distribution: autoparal keyword recommended in input file <--


--- !DatasetInfo
iteration_state: {dtset: 1, }
dimensions: {natom: 2, nkpt: 10, mband: 15, nsppol: 1, nspinor: 1, nspden: 1, mpw: 5892, }
cutoff_energies: {ecut:  42.0, pawecutdg:  -1.0, }
electrons: {nelect:   2.80000000E+01, charge:   0.00000000E+00, occopt:   1.00000000E+00, tsmear:   1.00000000E-02, }
meta: {optdriver: 0, ionmov: 0, optcell: 0, iscf: 7, paral_kgb: 0, }
...

 Real(R)+Recip(G) space primitive vectors, cartesian coordinates (Bohr,Bohr^-1):
 R(1)=  0.0000000  6.0912068  6.0912068  G(1)= -0.0820855  0.0820855  0.0820855
 R(2)=  6.0912068  0.0000000  6.0912068  G(2)=  0.0820855 -0.0820855  0.0820855
 R(3)=  6.0912068  6.0912068  0.0000000  G(3)=  0.0820855  0.0820855 -0.0820855
 Unit cell volume ucvol=  4.5200166E+02 bohr^3
 Angles (23,13,12)=  6.00000000E+01  6.00000000E+01  6.00000000E+01 degrees

 getcut: wavevector=  0.0000  0.0000  0.0000  ngfft=  54  54  54
         ecut(hartree)=     42.000   => boxcut(ratio)=   2.14949

--- Pseudopotential description ------------------------------------------------
- pspini: atom type   1  psp file is /Users/lassi/Desktop/abinit_InSb/simulations/pseudos/In.psp8
- pspatm: opening atomic psp file    /Users/lassi/Desktop/abinit_InSb/simulations/pseudos/In.psp8
- In    ONCVPSP-3.3.0  r_core=   2.21158   2.37566   1.87143
- 49.00000  13.00000    171103                znucl, zion, pspdat
    8   -1012    2    4       600   0.00000   pspcod,pspxc,lmax,lloc,mmax,r2well
    5.99000000000000    5.00000000000000    0.00000000000000   rchrg,fchrg,qchrg
     nproj     2     2     2
     extension_switch     1
  pspatm : epsatm=   25.24256501
         --- l  ekb(1:nproj) -->
             0    8.133624    1.226031
             1    5.976255    1.015318
             2   -4.092403   -1.250253
 pspatm: atomic psp has been read  and splines computed

- pspini: atom type   2  psp file is /Users/lassi/Desktop/abinit_InSb/simulations/pseudos/Sb.psp8
- pspatm: opening atomic psp file    /Users/lassi/Desktop/abinit_InSb/simulations/pseudos/Sb.psp8
- Sb    ONCVPSP-3.3.0  r_core=   1.90855   2.12485   1.81962
- 51.00000  15.00000    171103                znucl, zion, pspdat
    8   -1012    2    4       600   0.00000   pspcod,pspxc,lmax,lloc,mmax,r2well
    5.99000000000000    5.00000000000000    0.00000000000000   rchrg,fchrg,qchrg
     nproj     2     2     2
     extension_switch     1
  pspatm : epsatm=   26.56042488
         --- l  ekb(1:nproj) -->
             0    7.790707    1.044356
             1    5.463367    0.704398
             2   -4.791489   -1.453703
 pspatm: atomic psp has been read  and splines computed

   1.45048372E+03                                ecore*ucvol(ha*bohr**3)
--------------------------------------------------------------------------------

_setup2: Arith. and geom. avg. npw (full set) are    5875.469    5875.462

================================================================================

--- !BeginCycle
iteration_state: {dtset: 1, }
solver: {iscf: 7, nstep: 100, nline: 4, wfoptalg: 0, }
tolerances: {toldfe: 1.00E-12, }
...

     iter   Etot(hartree)      deltaE(h)  residm     vres2
 ETOT  1  -154.59509186547    -1.546E+02 5.721E-01 2.948E+03
 ETOT  2  -156.62847558126    -2.033E+00 1.323E-01 4.003E+03
 ETOT  3  -156.93611442697    -3.076E-01 1.743E-02 7.022E+02
 ETOT  4  -156.96973913977    -3.362E-02 1.862E-03 3.034E+02
 ETOT  5  -156.99388887816    -2.415E-02 4.750E-04 9.836E+00
 ETOT  6  -156.99401620264    -1.273E-04 5.867E-05 7.405E+00
 ETOT  7  -156.99465696896    -6.408E-04 1.349E-05 1.514E-03
 ETOT  8  -156.99465722120    -2.522E-07 2.371E-06 2.550E-03
 ETOT  9  -156.99465745351    -2.323E-07 1.546E-07 8.774E-05
 ETOT 10  -156.99465746136    -7.855E-09 5.523E-08 6.328E-08
 ETOT 11  -156.99465746141    -5.269E-11 3.710E-09 7.934E-08
 ETOT 12  -156.99465746143    -1.555E-11 2.031E-09 4.007E-09
 ETOT 13  -156.99465746143    -2.643E-12 9.554E-11 1.415E-09
 ETOT 14  -156.99465746143     1.080E-12 1.000E-10 2.338E-10
 ETOT 15  -156.99465746143    -6.537E-13 4.656E-12 1.064E-11
 ETOT 16  -156.99465746143     7.958E-13 5.050E-12 1.715E-12

 At SCF step   16, etot is converged : 
  for the second time, diff in etot=  7.958E-13 < toldfe=  1.000E-12

 Cartesian components of stress tensor (hartree/bohr^3)
  sigma(1 1)=  6.06089154E-07  sigma(3 2)=  0.00000000E+00
  sigma(2 2)=  6.06089154E-07  sigma(3 1)=  0.00000000E+00
  sigma(3 3)=  6.06089154E-07  sigma(2 1)=  0.00000000E+00


--- !ResultsGS
iteration_state: {dtset: 1, }
comment   : Summary of ground state results
lattice_vectors:
- [  0.0000000,   6.0912068,   6.0912068, ]
- [  6.0912068,   0.0000000,   6.0912068, ]
- [  6.0912068,   6.0912068,   0.0000000, ]
lattice_lengths: [   8.61427,    8.61427,    8.61427, ]
lattice_angles: [ 60.000,  60.000,  60.000, ] # degrees, (23, 13, 12)
lattice_volume:   4.5200166E+02
convergence: {deltae:  7.958E-13, res2:  1.715E-12, residm:  5.050E-12, diffor: null, }
etotal    :  -1.56994657E+02
entropy   :   0.00000000E+00
fermie    :   1.55696850E-01
cartesian_stress_tensor: # hartree/bohr^3
- [  6.06089154E-07,   0.00000000E+00,   0.00000000E+00, ]
- [  0.00000000E+00,   6.06089154E-07,   0.00000000E+00, ]
- [  0.00000000E+00,   0.00000000E+00,   6.06089154E-07, ]
pressure_GPa:  -1.7832E-02
xred      :
- [  0.0000E+00,   0.0000E+00,   0.0000E+00, In]
- [  2.5000E-01,   2.5000E-01,   2.5000E-01, Sb]
cartesian_forces: # hartree/bohr
- [  3.45355057E-31,  -1.03606517E-30,   3.45355057E-31, ]
- [ -3.45355057E-31,   1.03606517E-30,  -3.45355057E-31, ]
force_length_stats: {min:   1.14541314E-30, max:   1.14541314E-30, mean:   1.14541314E-30, }
...

 Integrated electronic density in atomic spheres:
 ------------------------------------------------
 Atom  Sphere_radius  Integrated_density
    1        2.00000          9.94162897
    2        2.00000         11.23922464
================================================================================

 ----iterations are completed or convergence reached----

 Mean square residual over all n,k,spin=   41.573E-15; max=  50.496E-13
 reduced coordinates (array xred) for    2 atoms
       0.000000000000      0.000000000000      0.000000000000
       0.250000000000      0.250000000000      0.250000000000
 rms dE/dt=  5.9500E-30; max dE/dt=  8.4145E-30; dE/dt below (all hartree)
    1       0.000000000000     -0.000000000000      0.000000000000
    2       0.000000000000      0.000000000000      0.000000000000

 cartesian coordinates (angstrom) at end:
    1      0.00000000000000     0.00000000000000     0.00000000000000
    2      1.61166391229893     1.61166391229893     1.61166391229893

 cartesian forces (hartree/bohr) at end:
    1      0.00000000000000    -0.00000000000000     0.00000000000000
    2     -0.00000000000000     0.00000000000000    -0.00000000000000
 frms,max,avg= 6.6130459E-31 1.0360652E-30   0.000E+00  0.000E+00  0.000E+00 h/b

 cartesian forces (eV/Angstrom) at end:
    1      0.00000000000000    -0.00000000000000     0.00000000000000
    2     -0.00000000000000     0.00000000000000    -0.00000000000000
 frms,max,avg= 3.4005646E-29 5.3276609E-29   0.000E+00  0.000E+00  0.000E+00 e/A
 length scales= 12.182413650000 12.182413650000 12.182413650000 bohr
              =  6.446655649196  6.446655649196  6.446655649196 angstroms
 prteigrs : about to open file BS_1o_DS1_EIG
 Fermi (or HOMO) energy (hartree) =   0.15570   Average Vxc (hartree)=  -0.34917
 Eigenvalues (hartree) for nkpt=  10  k points:
 kpt#   1, nband= 15, wtk=  0.09375, kpt= -0.1250 -0.2500  0.0000 (reduced coord)
  -0.88619   -0.88615   -0.88615   -0.88551   -0.88549   -0.37418   -0.37253   -0.37248
  -0.36990   -0.36965   -0.21789    0.04059    0.12501    0.12666    0.22851
 prteigrs : prtvol=0 or 1, do not print more k-points.


--- !EnergyTerms
iteration_state     : {dtset: 1, }
comment             : Components of total free energy in Hartree
kinetic             :  9.46613058919699E+01
hartree             :  4.38904895784710E+01
xc                  : -4.21260001952491E+01
Ewald energy        : -8.69774556338336E+01
psp_core            :  3.20902295602111E+00
local_psp           : -1.35613098416522E+02
non_local_psp       : -3.40389216422887E+01
total_energy        : -1.56994657461431E+02
total_energy_eV     : -4.27204188815221E+03
band_energy         : -1.26196070253810E+01
...


 Cartesian components of stress tensor (hartree/bohr^3)
  sigma(1 1)=  6.06089154E-07  sigma(3 2)=  0.00000000E+00
  sigma(2 2)=  6.06089154E-07  sigma(3 1)=  0.00000000E+00
  sigma(3 3)=  6.06089154E-07  sigma(2 1)=  0.00000000E+00

-Cartesian components of stress tensor (GPa)         [Pressure= -1.7832E-02 GPa]
- sigma(1 1)=  1.78317555E-02  sigma(3 2)=  0.00000000E+00
- sigma(2 2)=  1.78317555E-02  sigma(3 1)=  0.00000000E+00
- sigma(3 3)=  1.78317555E-02  sigma(2 1)=  0.00000000E+00

================================================================================
== DATASET  2 ==================================================================
-   mpi_nproc: 8, omp_nthreads: 8 (-1 if OMP is not activated)


--- !DatasetInfo
iteration_state: {dtset: 2, }
dimensions: {natom: 2, nkpt: 191, mband: 20, nsppol: 1, nspinor: 1, nspden: 1, mpw: 5961, }
cutoff_energies: {ecut:  42.0, pawecutdg:  -1.0, }
electrons: {nelect:   2.80000000E+01, charge:   0.00000000E+00, occopt:   1.00000000E+00, tsmear:   1.00000000E-02, }
meta: {optdriver: 0, ionmov: 0, optcell: 0, iscf: -2, paral_kgb: 0, }
...

 mkfilename : getden/=0, take file _DEN from output of DATASET   1.

 Real(R)+Recip(G) space primitive vectors, cartesian coordinates (Bohr,Bohr^-1):
 R(1)=  0.0000000  6.0912068  6.0912068  G(1)= -0.0820855  0.0820855  0.0820855
 R(2)=  6.0912068  0.0000000  6.0912068  G(2)=  0.0820855 -0.0820855  0.0820855
 R(3)=  6.0912068  6.0912068  0.0000000  G(3)=  0.0820855  0.0820855 -0.0820855
 Unit cell volume ucvol=  4.5200166E+02 bohr^3
 Angles (23,13,12)=  6.00000000E+01  6.00000000E+01  6.00000000E+01 degrees

 getcut: wavevector=  0.0000  0.0000  0.0000  ngfft=  54  54  54
         ecut(hartree)=     42.000   => boxcut(ratio)=   2.14949
--------------------------------------------------------------------------------


================================================================================
 prteigrs : about to open file BS_1o_DS2_EIG
 Non-SCF case, kpt    1 (  0.50000  0.00000  0.00000), residuals and eigenvalues=
  3.61E-17  6.29E-17  2.29E-17  7.78E-17  5.05E-17  2.09E-17  6.55E-17  6.14E-17
  3.50E-17  9.57E-17  6.48E-17  5.96E-17  5.53E-17  5.83E-17  6.59E-17  8.35E-17
  6.89E-17  9.46E-17  2.46E-12  1.56E-08
 -8.8617E-01 -8.8613E-01 -8.8613E-01 -8.8549E-01 -8.8549E-01 -3.7501E-01
 -3.7228E-01 -3.7228E-01 -3.6968E-01 -3.6968E-01 -1.8545E-01 -4.7667E-02
  1.2572E-01  1.2572E-01  1.7941E-01  3.0338E-01  3.0338E-01  3.8392E-01
  4.6576E-01  5.0726E-01
  prteigrs : nnsclo,ikpt=  100    1 max resid (incl. the buffer)=  1.55701E-08
 Non-SCF case, kpt    2 (  0.49000  0.00000  0.00000), residuals and eigenvalues=
  9.56E-17  5.39E-17  3.08E-17  1.87E-17  4.01E-17  2.24E-17  1.87E-17  9.91E-17
  9.17E-17  6.45E-17  5.01E-17  8.27E-17  8.86E-17  5.51E-17  5.83E-17  4.78E-17
  7.23E-17  9.46E-17  7.84E-15  2.00E-09
 -8.8617E-01 -8.8613E-01 -8.8613E-01 -8.8549E-01 -8.8549E-01 -3.7501E-01
 -3.7228E-01 -3.7228E-01 -3.6968E-01 -3.6968E-01 -1.8554E-01 -4.7510E-02
  1.2574E-01  1.2574E-01  1.7943E-01  3.0339E-01  3.0339E-01  3.8395E-01
  4.6511E-01  5.0670E-01
  prteigrs : nnsclo,ikpt=  100    2 max resid (incl. the buffer)=  1.99995E-09
 Non-SCF case, kpt    3 (  0.48000  0.00000  0.00000), residuals and eigenvalues=
  4.88E-17  6.79E-17  3.02E-17  7.37E-17  8.27E-17  5.85E-17  3.28E-17  5.43E-17
  3.35E-17  3.62E-17  9.09E-17  7.36E-17  5.46E-17  4.87E-17  8.03E-17  5.74E-17
  5.75E-17  8.40E-17  7.65E-14  5.36E-12
 -8.8617E-01 -8.8613E-01 -8.8613E-01 -8.8549E-01 -8.8549E-01 -3.7501E-01
 -3.7228E-01 -3.7228E-01 -3.6968E-01 -3.6968E-01 -1.8579E-01 -4.7042E-02
  1.2582E-01  1.2582E-01  1.7950E-01  3.0341E-01  3.0341E-01  3.8402E-01
  4.6325E-01  5.0509E-01
  prteigrs : nnsclo,ikpt=  100    3 max resid (incl. the buffer)=  5.36103E-12
 Non-SCF case, kpt    4 (  0.47000  0.00000  0.00000), residuals and eigenvalues=
  8.77E-17  7.64E-17  2.81E-17  2.51E-17  8.98E-17  4.53E-17  2.53E-17  4.30E-17
  4.25E-17  9.70E-17  6.37E-17  3.86E-17  4.68E-17  6.57E-17  9.87E-17  6.98E-17
  8.17E-17  8.88E-17  9.25E-13  3.69E-09
 -8.8617E-01 -8.8613E-01 -8.8613E-01 -8.8549E-01 -8.8549E-01 -3.7500E-01
 -3.7228E-01 -3.7228E-01 -3.6968E-01 -3.6968E-01 -1.8621E-01 -4.6264E-02
  1.2595E-01  1.2595E-01  1.7961E-01  3.0345E-01  3.0345E-01  3.8414E-01
  4.6036E-01  5.0262E-01
  prteigrs : nnsclo,ikpt=  100    4 max resid (incl. the buffer)=  3.69317E-09
 Non-SCF case, kpt    5 (  0.46000  0.00000  0.00000), residuals and eigenvalues=
  3.13E-17  4.89E-17  2.45E-17  5.98E-17  8.50E-17  4.81E-17  2.72E-17  7.97E-17
  6.92E-17  5.17E-17  9.12E-17  8.94E-17  7.79E-17  4.90E-17  8.38E-17  9.53E-17
  5.22E-17  7.60E-17  1.21E-13  1.56E-14
 -8.8617E-01 -8.8613E-01 -8.8613E-01 -8.8549E-01 -8.8549E-01 -3.7498E-01
 -3.7229E-01 -3.7229E-01 -3.6968E-01 -3.6968E-01 -1.8679E-01 -4.5185E-02
  1.2614E-01  1.2614E-01  1.7977E-01  3.0350E-01  3.0350E-01  3.8430E-01
  4.5670E-01  4.9953E-01
  prteigrs : nnsclo,ikpt=  100    5 max resid (incl. the buffer)=  1.21298E-13
 Non-SCF case, kpt    6 (  0.45000  0.00000  0.00000), residuals and eigenvalues=
  9.15E-17  9.59E-17  6.45E-17  5.38E-17  6.84E-17  9.34E-17  4.94E-17  3.25E-17
  5.64E-17  7.95E-17  9.01E-17  3.12E-17  9.95E-17  8.97E-17  5.65E-17  6.54E-17
  3.81E-17  7.49E-17  1.70E-13  1.21E-12
 -8.8617E-01 -8.8613E-01 -8.8613E-01 -8.8549E-01 -8.8549E-01 -3.7497E-01
 -3.7229E-01 -3.7229E-01 -3.6968E-01 -3.6968E-01 -1.8752E-01 -4.3813E-02
  1.2637E-01  1.2637E-01  1.7998E-01  3.0356E-01  3.0356E-01  3.8450E-01
  4.5249E-01  4.9601E-01
  prteigrs : nnsclo,ikpt=  100    6 max resid (incl. the buffer)=  1.21231E-12
 Non-SCF case, kpt    7 (  0.44000  0.00000  0.00000), residuals and eigenvalues=
  3.22E-17  6.60E-17  7.26E-17  3.72E-17  8.97E-17  7.69E-17  7.67E-17  4.33E-17
  9.29E-17  8.75E-17  3.89E-17  8.18E-17  5.29E-17  4.55E-17  8.68E-17  6.02E-17
  7.66E-17  5.88E-17  2.68E-13  6.17E-15
 -8.8617E-01 -8.8613E-01 -8.8613E-01 -8.8549E-01 -8.8549E-01 -3.7495E-01
 -3.7230E-01 -3.7230E-01 -3.6969E-01 -3.6969E-01 -1.8839E-01 -4.2158E-02
  1.2666E-01  1.2666E-01  1.8023E-01  3.0363E-01  3.0363E-01  3.8472E-01
  4.4790E-01  4.9221E-01
  prteigrs : nnsclo,ikpt=  100    7 max resid (incl. the buffer)=  2.68363E-13
 Non-SCF case, kpt    8 (  0.43000  0.00000  0.00000), residuals and eigenvalues=
  9.70E-17  7.82E-17  2.61E-17  7.27E-17  4.34E-17  3.25E-17  3.32E-17  2.75E-17
  4.75E-17  5.31E-17  6.92E-17  2.60E-17  9.55E-17  7.32E-17  5.69E-17  9.17E-17
  9.11E-17  8.05E-17  8.87E-14  1.35E-14
 -8.8617E-01 -8.8614E-01 -8.8614E-01 -8.8549E-01 -8.8549E-01 -3.7492E-01
 -3.7230E-01 -3.7230E-01 -3.6969E-01 -3.6969E-01 -1.8939E-01 -4.0232E-02
  1.2700E-01  1.2700E-01  1.8052E-01  3.0370E-01  3.0370E-01  3.8494E-01
  4.4308E-01  4.8827E-01
  prteigrs : nnsclo,ikpt=  100    8 max resid (incl. the buffer)=  8.86848E-14
 Non-SCF case, kpt    9 (  0.42000  0.00000  0.00000), residuals and eigenvalues=
  7.65E-17  4.28E-17  4.04E-17  4.14E-17  2.96E-17  3.38E-17  4.18E-17  2.88E-17
  7.42E-17  2.89E-17  9.09E-17  6.88E-17  8.59E-17  6.51E-17  6.79E-17  6.79E-17
  6.29E-17  7.80E-17  3.18E-14  7.78E-16
 -8.8617E-01 -8.8614E-01 -8.8614E-01 -8.8549E-01 -8.8549E-01 -3.7490E-01
 -3.7231E-01 -3.7231E-01 -3.6969E-01 -3.6969E-01 -1.9051E-01 -3.8048E-02
  1.2740E-01  1.2740E-01  1.8086E-01  3.0377E-01  3.0377E-01  3.8514E-01
  4.3815E-01  4.8425E-01
  prteigrs : nnsclo,ikpt=  100    9 max resid (incl. the buffer)=  3.17696E-14
 Non-SCF case, kpt   10 (  0.41000  0.00000  0.00000), residuals and eigenvalues=
  2.36E-17  2.14E-17  6.48E-17  3.61E-17  7.55E-17  4.06E-17  2.98E-17  5.03E-17
  6.23E-17  3.36E-17  4.33E-17  6.30E-17  8.05E-17  8.85E-17  9.11E-17  8.43E-17
  5.98E-17  6.33E-17  2.26E-15  1.09E-15
 -8.8617E-01 -8.8614E-01 -8.8614E-01 -8.8549E-01 -8.8549E-01 -3.7486E-01
 -3.7232E-01 -3.7232E-01 -3.6970E-01 -3.6970E-01 -1.9173E-01 -3.5618E-02
  1.2784E-01  1.2784E-01  1.8124E-01  3.0384E-01  3.0384E-01  3.8529E-01
  4.3321E-01  4.8021E-01
  prteigrs : nnsclo,ikpt=  100   10 max resid (incl. the buffer)=  2.25814E-15
 Non-SCF case, kpt   11 (  0.40000  0.00000  0.00000), residuals and eigenvalues=
  9.20E-17  3.97E-17  6.87E-17  8.96E-17  8.52E-17  7.56E-17  7.94E-17  4.04E-17
  5.84E-17  6.51E-17  5.27E-17  5.04E-17  7.48E-17  5.47E-17  4.50E-17  6.65E-17
  5.94E-17  6.16E-17  1.41E-15  7.98E-16
 -8.8617E-01 -8.8614E-01 -8.8614E-01 -8.8549E-01 -8.8549E-01 -3.7483E-01
 -3.7233E-01 -3.7233E-01 -3.6970E-01 -3.6970E-01 -1.9305E-01 -3.2956E-02
  1.2833E-01  1.2833E-01  1.8166E-01  3.0391E-01  3.0391E-01  3.8532E-01
  4.2836E-01  4.7622E-01
  prteigrs : nnsclo,ikpt=  100   11 max resid (incl. the buffer)=  1.40780E-15
 Non-SCF case, kpt   12 (  0.39000  0.00000  0.00000), residuals and eigenvalues=
  5.44E-17  2.54E-17  4.19E-17  4.16E-17  3.25E-17  4.03E-17  4.72E-17  7.86E-17
  6.84E-17  2.43E-17  5.57E-17  4.72E-17  3.25E-17  5.59E-17  9.32E-17  9.82E-17
  5.76E-17  7.82E-17  2.93E-16  8.37E-17
 -8.8617E-01 -8.8614E-01 -8.8614E-01 -8.8549E-01 -8.8549E-01 -3.7479E-01
 -3.7235E-01 -3.7235E-01 -3.6970E-01 -3.6970E-01 -1.9444E-01 -3.0075E-02
  1.2887E-01  1.2887E-01  1.8212E-01  3.0395E-01  3.0395E-01  3.8517E-01
  4.2371E-01  4.7229E-01
  prteigrs : nnsclo,ikpt=  100   12 max resid (incl. the buffer)=  2.93200E-16
 Non-SCF case, kpt   13 (  0.38000  0.00000  0.00000), residuals and eigenvalues=
  8.87E-17  4.24E-17  7.87E-17  2.92E-17  4.15E-17  2.87E-17  9.68E-17  9.81E-17
  7.01E-17  9.39E-17  4.25E-17  9.85E-17  6.10E-17  8.79E-17  5.40E-17  7.96E-17
  5.41E-17  8.26E-17  8.67E-17  2.56E-16
 -8.8617E-01 -8.8614E-01 -8.8614E-01 -8.8549E-01 -8.8549E-01 -3.7475E-01
 -3.7236E-01 -3.7236E-01 -3.6971E-01 -3.6971E-01 -1.9590E-01 -2.6988E-02
  1.2946E-01  1.2946E-01  1.8263E-01  3.0398E-01  3.0398E-01  3.8471E-01
  4.1940E-01  4.6845E-01
  prteigrs : nnsclo,ikpt=  100   13 max resid (incl. the buffer)=  2.56427E-16
 Non-SCF case, kpt   14 (  0.37000  0.00000  0.00000), residuals and eigenvalues=
  9.53E-17  4.50E-17  8.06E-17  2.51E-17  4.14E-17  3.26E-17  2.39E-17  3.39E-17
  8.64E-17  4.38E-17  2.12E-17  6.82E-17  6.44E-17  7.90E-17  7.70E-17  7.86E-17
  9.53E-17  7.04E-17  1.78E-15  9.88E-17
 -8.8617E-01 -8.8614E-01 -8.8614E-01 -8.8549E-01 -8.8549E-01 -3.7471E-01
 -3.7237E-01 -3.7237E-01 -3.6971E-01 -3.6971E-01 -1.9741E-01 -2.3708E-02
  1.3010E-01  1.3010E-01  1.8317E-01  3.0398E-01  3.0398E-01  3.8381E-01
  4.1559E-01  4.6474E-01
  prteigrs : nnsclo,ikpt=  100   14 max resid (incl. the buffer)=  1.77771E-15
 Non-SCF case, kpt   15 (  0.36000  0.00000  0.00000), residuals and eigenvalues=
  9.12E-17  3.42E-17  2.63E-17  8.62E-17  8.08E-17  3.86E-17  3.37E-17  9.88E-17
  2.96E-17  3.99E-17  8.06E-17  6.45E-17  8.61E-17  8.64E-17  8.03E-17  9.00E-17
  7.92E-17  8.67E-17  9.29E-17  8.50E-17
 -8.8617E-01 -8.8614E-01 -8.8614E-01 -8.8549E-01 -8.8549E-01 -3.7467E-01
 -3.7239E-01 -3.7239E-01 -3.6971E-01 -3.6971E-01 -1.9897E-01 -2.0247E-02
  1.3079E-01  1.3079E-01  1.8376E-01  3.0395E-01  3.0395E-01  3.8231E-01
  4.1247E-01  4.6117E-01
 Non-SCF case, kpt   16 (  0.35000  0.00000  0.00000), residuals and eigenvalues=
  3.73E-17  8.96E-17  5.16E-17  5.37E-17  1.48E-17  7.53E-17  6.77E-17  7.27E-17
  7.74E-17  9.71E-17  9.75E-17  5.54E-17  4.47E-17  3.41E-17  8.90E-17  7.30E-17
  3.19E-17  7.76E-17  1.32E-15  3.88E-16
 -8.8617E-01 -8.8614E-01 -8.8614E-01 -8.8549E-01 -8.8549E-01 -3.7462E-01
 -3.7241E-01 -3.7241E-01 -3.6972E-01 -3.6972E-01 -2.0056E-01 -1.6616E-02
  1.3152E-01  1.3152E-01  1.8438E-01  3.0387E-01  3.0387E-01  3.8007E-01
  4.1015E-01  4.5775E-01
  prteigrs : nnsclo,ikpt=  100   16 max resid (incl. the buffer)=  1.31937E-15
 Non-SCF case, kpt   17 (  0.34000  0.00000  0.00000), residuals and eigenvalues=
  5.31E-17  6.05E-17  8.92E-17  9.43E-17  5.95E-17  9.82E-17  5.16E-17  8.16E-17
  7.37E-17  8.28E-17  7.07E-17  7.95E-17  4.71E-17  9.93E-17  8.37E-17  6.97E-17
  5.43E-17  7.70E-17  9.21E-17  1.12E-16
 -8.8617E-01 -8.8614E-01 -8.8614E-01 -8.8549E-01 -8.8549E-01 -3.7457E-01
 -3.7242E-01 -3.7242E-01 -3.6972E-01 -3.6972E-01 -2.0218E-01 -1.2826E-02
  1.3230E-01  1.3230E-01  1.8503E-01  3.0375E-01  3.0375E-01  3.7709E-01
  4.0867E-01  4.5452E-01
  prteigrs : nnsclo,ikpt=  100   17 max resid (incl. the buffer)=  1.12085E-16
 Non-SCF case, kpt   18 (  0.33000  0.00000  0.00000), residuals and eigenvalues=
  9.08E-17  6.20E-17  7.98E-17  8.28E-17  6.04E-17  9.81E-17  8.82E-17  6.02E-17
  7.27E-17  7.91E-17  9.24E-17  8.61E-17  5.45E-17  3.55E-17  7.24E-17  8.20E-17
  3.64E-17  5.13E-17  7.01E-17  8.02E-17
 -8.8617E-01 -8.8614E-01 -8.8614E-01 -8.8549E-01 -8.8549E-01 -3.7451E-01
 -3.7244E-01 -3.7244E-01 -3.6973E-01 -3.6973E-01 -2.0381E-01 -8.8872E-03
  1.3312E-01  1.3312E-01  1.8572E-01  3.0356E-01  3.0356E-01  3.7346E-01
  4.0793E-01  4.5147E-01
 Non-SCF case, kpt   19 (  0.32000  0.00000  0.00000), residuals and eigenvalues=
  3.02E-17  6.19E-17  9.98E-17  8.42E-17  7.58E-17  9.40E-17  3.53E-17  3.09E-17
  7.26E-17  6.60E-17  2.84E-17  7.79E-17  5.71E-17  3.16E-17  7.09E-17  9.91E-17
  9.13E-17  6.28E-17  1.09E-16  6.14E-17
 -8.8617E-01 -8.8614E-01 -8.8614E-01 -8.8549E-01 -8.8549E-01 -3.7446E-01
 -3.7246E-01 -3.7246E-01 -3.6973E-01 -3.6973E-01 -2.0545E-01 -4.8085E-03
  1.3398E-01  1.3398E-01  1.8643E-01  3.0331E-01  3.0331E-01  3.6934E-01
  4.0777E-01  4.4863E-01
  prteigrs : nnsclo,ikpt=  100   19 max resid (incl. the buffer)=  1.09195E-16
 Non-SCF case, kpt   20 (  0.31000  0.00000  0.00000), residuals and eigenvalues=
  7.24E-17  2.16E-17  3.65E-17  6.17E-17  9.79E-17  4.62E-17  6.47E-17  7.16E-17
  4.10E-17  9.63E-17  4.11E-17  9.19E-17  7.28E-17  7.58E-17  5.21E-17  7.74E-17
  5.20E-17  6.91E-17  6.03E-15  7.18E-17
 -8.8617E-01 -8.8615E-01 -8.8615E-01 -8.8549E-01 -8.8549E-01 -3.7440E-01
 -3.7248E-01 -3.7248E-01 -3.6973E-01 -3.6973E-01 -2.0709E-01 -5.9910E-04
  1.3489E-01  1.3489E-01  1.8717E-01  3.0299E-01  3.0299E-01  3.6488E-01
  4.0804E-01  4.4601E-01
  prteigrs : nnsclo,ikpt=  100   20 max resid (incl. the buffer)=  6.03054E-15
 Non-SCF case, kpt   21 (  0.30000  0.00000  0.00000), residuals and eigenvalues=
  3.88E-17  3.15E-17  5.65E-17  7.73E-17  8.79E-17  3.84E-17  4.63E-17  4.23E-17
  3.47E-17  5.92E-17  5.27E-17  4.87E-17  4.29E-17  3.01E-17  6.41E-17  5.59E-17
  9.01E-17  7.38E-17  1.04E-13  1.77E-16
 -8.8617E-01 -8.8615E-01 -8.8615E-01 -8.8549E-01 -8.8549E-01 -3.7435E-01
 -3.7250E-01 -3.7250E-01 -3.6974E-01 -3.6974E-01 -2.0872E-01  3.7327E-03
  1.3583E-01  1.3583E-01  1.8794E-01  3.0259E-01  3.0259E-01  3.6020E-01
  4.0862E-01  4.4362E-01
  prteigrs : nnsclo,ikpt=  100   21 max resid (incl. the buffer)=  1.04420E-13
 Non-SCF case, kpt   22 (  0.29000  0.00000  0.00000), residuals and eigenvalues=
  8.91E-17  2.87E-17  3.91E-17  4.94E-17  7.39E-17  3.58E-17  7.18E-17  9.18E-17
  2.63E-17  3.89E-17  6.83E-17  7.69E-17  6.34E-17  7.08E-17  6.53E-17  5.89E-17
  9.44E-17  9.34E-17  7.62E-14  9.42E-17
 -8.8617E-01 -8.8615E-01 -8.8615E-01 -8.8550E-01 -8.8550E-01 -3.7429E-01
 -3.7252E-01 -3.7252E-01 -3.6974E-01 -3.6974E-01 -2.1034E-01  8.1790E-03
  1.3681E-01  1.3681E-01  1.8872E-01  3.0210E-01  3.0210E-01  3.5538E-01
  4.0942E-01  4.4147E-01
  prteigrs : nnsclo,ikpt=  100   22 max resid (incl. the buffer)=  7.61877E-14
 Non-SCF case, kpt   23 (  0.28000  0.00000  0.00000), residuals and eigenvalues=
  6.46E-17  8.01E-17  2.39E-17  5.84E-17  3.69E-17  3.27E-17  3.43E-17  9.07E-17
  4.71E-17  9.42E-17  3.19E-17  8.91E-17  4.88E-17  2.92E-17  8.20E-17  8.22E-17
  6.87E-17  7.78E-17  1.56E-12  9.26E-17
 -8.8617E-01 -8.8615E-01 -8.8615E-01 -8.8550E-01 -8.8550E-01 -3.7423E-01
 -3.7255E-01 -3.7255E-01 -3.6974E-01 -3.6974E-01 -2.1194E-01  1.2732E-02
  1.3782E-01  1.3782E-01  1.8952E-01  3.0152E-01  3.0152E-01  3.5049E-01
  4.1036E-01  4.3957E-01
  prteigrs : nnsclo,ikpt=  100   23 max resid (incl. the buffer)=  1.56300E-12
 Non-SCF case, kpt   24 (  0.27000  0.00000  0.00000), residuals and eigenvalues=
  7.56E-17  2.62E-17  2.25E-17  4.03E-17  5.33E-17  6.83E-17  3.21E-17  6.77E-17
  5.26E-17  9.79E-17  7.83E-17  8.61E-17  6.46E-17  5.10E-17  4.49E-17  9.42E-17
  9.29E-17  8.48E-17  6.88E-13  1.51E-16
 -8.8617E-01 -8.8615E-01 -8.8615E-01 -8.8550E-01 -8.8550E-01 -3.7417E-01
 -3.7257E-01 -3.7257E-01 -3.6974E-01 -3.6974E-01 -2.1351E-01  1.7386E-02
  1.3887E-01  1.3887E-01  1.9033E-01  3.0085E-01  3.0085E-01  3.4556E-01
  4.1139E-01  4.3793E-01
  prteigrs : nnsclo,ikpt=  100   24 max resid (incl. the buffer)=  6.87860E-13
 Non-SCF case, kpt   25 (  0.26000  0.00000  0.00000), residuals and eigenvalues=
  5.61E-17  6.57E-17  8.74E-17  2.61E-17  4.29E-17  2.22E-17  3.45E-17  3.61E-17
  2.45E-17  2.95E-17  6.64E-17  6.18E-17  3.90E-17  9.01E-17  4.03E-17  5.67E-17
  4.24E-17  7.14E-17  3.28E-13  1.32E-16
 -8.8617E-01 -8.8615E-01 -8.8615E-01 -8.8550E-01 -8.8550E-01 -3.7411E-01
 -3.7259E-01 -3.7259E-01 -3.6974E-01 -3.6974E-01 -2.1506E-01  2.2133E-02
  1.3995E-01  1.3995E-01  1.9113E-01  3.0008E-01  3.0008E-01  3.4065E-01
  4.1245E-01  4.3655E-01
  prteigrs : nnsclo,ikpt=  100   25 max resid (incl. the buffer)=  3.28072E-13
 Non-SCF case, kpt   26 (  0.25000  0.00000  0.00000), residuals and eigenvalues=
  8.82E-17  7.56E-17  2.21E-17  7.11E-17  9.87E-17  6.94E-17  2.60E-17  2.35E-17
  6.19E-17  8.58E-17  5.19E-17  8.53E-17  6.36E-17  7.62E-17  9.48E-17  5.70E-17
  3.58E-17  7.43E-17  1.67E-10  5.79E-16
 -8.8617E-01 -8.8615E-01 -8.8615E-01 -8.8550E-01 -8.8550E-01 -3.7404E-01
 -3.7262E-01 -3.7262E-01 -3.6974E-01 -3.6974E-01 -2.1657E-01  2.6966E-02
  1.4106E-01  1.4106E-01  1.9193E-01  2.9920E-01  2.9920E-01  3.3576E-01
  4.1349E-01  4.3544E-01
  prteigrs : nnsclo,ikpt=  100   26 max resid (incl. the buffer)=  1.66693E-10
 Non-SCF case, kpt   27 (  0.24000  0.00000  0.00000), residuals and eigenvalues=
  1.63E-17  2.08E-17  4.29E-17  5.83E-17  2.96E-17  2.81E-17  7.21E-17  5.22E-17
  4.42E-17  4.63E-17  7.65E-17  6.66E-17  9.94E-17  6.17E-17  7.01E-17  8.14E-17
  5.95E-17  9.21E-17  3.47E-10  5.72E-17
 -8.8617E-01 -8.8615E-01 -8.8615E-01 -8.8550E-01 -8.8550E-01 -3.7398E-01
 -3.7264E-01 -3.7264E-01 -3.6975E-01 -3.6975E-01 -2.1805E-01  3.1881E-02
  1.4219E-01  1.4219E-01  1.9272E-01  2.9823E-01  2.9823E-01  3.3092E-01
  4.1445E-01  4.3460E-01
  prteigrs : nnsclo,ikpt=  100   27 max resid (incl. the buffer)=  3.46921E-10
 Non-SCF case, kpt   28 (  0.23000  0.00000  0.00000), residuals and eigenvalues=
  5.37E-17  9.02E-17  5.73E-17  3.36E-17  8.13E-17  9.12E-17  5.32E-17  2.00E-17
  8.12E-17  8.64E-17  9.55E-17  4.94E-17  7.73E-17  6.89E-17  3.30E-17  4.80E-17
  9.00E-17  6.01E-17  6.31E-10  1.51E-16
 -8.8617E-01 -8.8616E-01 -8.8616E-01 -8.8550E-01 -8.8550E-01 -3.7392E-01
 -3.7267E-01 -3.7267E-01 -3.6975E-01 -3.6975E-01 -2.1948E-01  3.6869E-02
  1.4334E-01  1.4334E-01  1.9347E-01  2.9717E-01  2.9717E-01  3.2615E-01
  4.1528E-01  4.3403E-01
  prteigrs : nnsclo,ikpt=  100   28 max resid (incl. the buffer)=  6.30653E-10
 Non-SCF case, kpt   29 (  0.22000  0.00000  0.00000), residuals and eigenvalues=
  6.41E-17  7.72E-17  7.10E-17  9.78E-17  8.46E-17  3.60E-17  6.57E-17  5.45E-17
  9.13E-17  3.02E-17  7.69E-17  9.33E-17  6.43E-17  7.25E-17  6.49E-17  9.40E-17
  8.10E-17  8.44E-17  2.90E-09  5.92E-16
 -8.8617E-01 -8.8616E-01 -8.8616E-01 -8.8550E-01 -8.8550E-01 -3.7386E-01
 -3.7269E-01 -3.7269E-01 -3.6975E-01 -3.6975E-01 -2.2088E-01  4.1927E-02
  1.4451E-01  1.4451E-01  1.9419E-01  2.9601E-01  2.9601E-01  3.2146E-01
  4.1588E-01  4.3373E-01
  prteigrs : nnsclo,ikpt=  100   29 max resid (incl. the buffer)=  2.90162E-09
 Non-SCF case, kpt   30 (  0.21000  0.00000  0.00000), residuals and eigenvalues=
  3.27E-17  3.80E-17  4.35E-17  7.82E-17  6.15E-17  3.92E-17  4.60E-17  3.97E-17
  5.07E-17  4.42E-17  6.07E-17  8.33E-17  2.80E-17  5.48E-17  9.53E-17  6.78E-17
  7.43E-17  4.75E-17  6.69E-10  6.90E-16
 -8.8617E-01 -8.8616E-01 -8.8616E-01 -8.8550E-01 -8.8550E-01 -3.7380E-01
 -3.7272E-01 -3.7272E-01 -3.6975E-01 -3.6975E-01 -2.2222E-01  4.7046E-02
  1.4570E-01  1.4570E-01  1.9485E-01  2.9478E-01  2.9478E-01  3.1688E-01
  4.1618E-01  4.3371E-01
  prteigrs : nnsclo,ikpt=  100   30 max resid (incl. the buffer)=  6.68634E-10
 Non-SCF case, kpt   31 (  0.20000  0.00000  0.00000), residuals and eigenvalues=
  5.74E-17  2.42E-17  4.55E-17  2.43E-17  4.99E-17  4.66E-17  4.72E-17  9.91E-17
  3.07E-17  2.83E-17  4.29E-17  8.63E-17  5.75E-17  9.34E-17  4.70E-17  6.60E-17
  3.19E-17  6.75E-17  3.70E-09  9.15E-13
 -8.8617E-01 -8.8616E-01 -8.8616E-01 -8.8550E-01 -8.8550E-01 -3.7374E-01
 -3.7274E-01 -3.7274E-01 -3.6975E-01 -3.6975E-01 -2.2352E-01  5.2223E-02
  1.4690E-01  1.4690E-01  1.9544E-01  2.9346E-01  2.9346E-01  3.1241E-01
  4.1607E-01  4.3394E-01
  prteigrs : nnsclo,ikpt=  100   31 max resid (incl. the buffer)=  3.70103E-09
 Non-SCF case, kpt   32 (  0.19000  0.00000  0.00000), residuals and eigenvalues=
  4.70E-17  5.02E-17  8.65E-17  6.18E-17  6.86E-17  4.44E-17  5.28E-17  4.12E-17
  7.81E-17  3.58E-17  4.63E-17  8.33E-17  9.73E-17  6.14E-17  6.85E-17  4.08E-17
  4.73E-17  6.57E-17  1.46E-10  1.92E-12
 -8.8617E-01 -8.8616E-01 -8.8616E-01 -8.8550E-01 -8.8550E-01 -3.7368E-01
 -3.7277E-01 -3.7277E-01 -3.6975E-01 -3.6975E-01 -2.2476E-01  5.7450E-02
  1.4810E-01  1.4810E-01  1.9593E-01  2.9209E-01  2.9209E-01  3.0809E-01
  4.1546E-01  4.3443E-01
  prteigrs : nnsclo,ikpt=  100   32 max resid (incl. the buffer)=  1.45730E-10
 Non-SCF case, kpt   33 (  0.18000  0.00000  0.00000), residuals and eigenvalues=
  2.70E-17  7.13E-17  4.67E-17  5.60E-17  9.19E-17  4.69E-17  6.87E-17  6.35E-17
  5.91E-17  8.92E-17  9.12E-17  2.45E-17  8.17E-17  7.01E-17  7.17E-17  9.15E-17
  6.01E-17  5.24E-17  4.60E-10  7.05E-12
 -8.8617E-01 -8.8616E-01 -8.8616E-01 -8.8550E-01 -8.8550E-01 -3.7362E-01
 -3.7279E-01 -3.7279E-01 -3.6975E-01 -3.6975E-01 -2.2596E-01  6.2721E-02
  1.4930E-01  1.4930E-01  1.9631E-01  2.9066E-01  2.9066E-01  3.0392E-01
  4.1428E-01  4.3517E-01
  prteigrs : nnsclo,ikpt=  100   33 max resid (incl. the buffer)=  4.60067E-10
 Non-SCF case, kpt   34 (  0.17000  0.00000  0.00000), residuals and eigenvalues=
  5.78E-17  3.92E-17  3.83E-17  5.44E-17  6.68E-17  3.40E-17  7.68E-17  3.06E-17
  7.20E-17  7.46E-17  8.44E-17  8.55E-17  7.71E-17  6.44E-17  5.85E-17  6.06E-17
  6.07E-17  6.84E-17  1.99E-10  1.57E-10
 -8.8617E-01 -8.8616E-01 -8.8616E-01 -8.8550E-01 -8.8550E-01 -3.7357E-01
 -3.7281E-01 -3.7281E-01 -3.6974E-01 -3.6974E-01 -2.2709E-01  6.8031E-02
  1.5050E-01  1.5050E-01  1.9655E-01  2.8919E-01  2.8919E-01  2.9993E-01
  4.1249E-01  4.3616E-01
  prteigrs : nnsclo,ikpt=  100   34 max resid (incl. the buffer)=  1.98831E-10
 Non-SCF case, kpt   35 (  0.16000  0.00000  0.00000), residuals and eigenvalues=
  6.07E-17  3.98E-17  5.20E-17  9.41E-17  5.38E-17  3.73E-17  6.26E-17  6.30E-17
  9.84E-17  7.74E-17  4.40E-17  6.70E-17  8.03E-17  9.70E-17  8.87E-17  5.57E-17
  8.36E-17  7.76E-17  1.06E-11  1.54E-10
 -8.8617E-01 -8.8616E-01 -8.8616E-01 -8.8550E-01 -8.8550E-01 -3.7351E-01
 -3.7284E-01 -3.7284E-01 -3.6974E-01 -3.6974E-01 -2.2817E-01  7.3373E-02
  1.5170E-01  1.5170E-01  1.9661E-01  2.8769E-01  2.8769E-01  2.9614E-01
  4.1013E-01  4.3738E-01
  prteigrs : nnsclo,ikpt=  100   35 max resid (incl. the buffer)=  1.54288E-10
 Non-SCF case, kpt   36 (  0.15000  0.00000  0.00000), residuals and eigenvalues=
  2.32E-17  4.03E-17  5.85E-17  6.25E-17  7.65E-17  4.92E-17  9.99E-17  2.71E-17
  7.47E-17  8.74E-17  9.74E-17  5.92E-17  7.98E-17  6.39E-17  6.06E-17  8.19E-17
  6.97E-17  3.60E-17  6.69E-13  9.93E-11
 -8.8617E-01 -8.8617E-01 -8.8617E-01 -8.8550E-01 -8.8550E-01 -3.7346E-01
 -3.7286E-01 -3.7286E-01 -3.6974E-01 -3.6974E-01 -2.2919E-01  7.8740E-02
  1.5287E-01  1.5287E-01  1.9648E-01  2.8618E-01  2.8618E-01  2.9258E-01
  4.0728E-01  4.3882E-01
  prteigrs : nnsclo,ikpt=  100   36 max resid (incl. the buffer)=  9.92959E-11
 Non-SCF case, kpt   37 (  0.14000  0.00000  0.00000), residuals and eigenvalues=
  7.95E-17  4.04E-17  3.00E-17  6.08E-17  6.00E-17  4.38E-17  7.08E-17  3.72E-17
  6.68E-17  6.75E-17  6.38E-17  5.80E-17  8.09E-17  3.72E-17  5.28E-17  5.74E-17
  5.36E-17  4.50E-17  4.41E-14  3.17E-10
 -8.8617E-01 -8.8617E-01 -8.8617E-01 -8.8551E-01 -8.8551E-01 -3.7341E-01
 -3.7288E-01 -3.7288E-01 -3.6974E-01 -3.6974E-01 -2.3016E-01  8.4125E-02
  1.5402E-01  1.5402E-01  1.9611E-01  2.8467E-01  2.8467E-01  2.8928E-01
  4.0405E-01  4.4048E-01
  prteigrs : nnsclo,ikpt=  100   37 max resid (incl. the buffer)=  3.17118E-10
 Non-SCF case, kpt   38 (  0.13000  0.00000  0.00000), residuals and eigenvalues=
  6.31E-17  3.86E-17  5.22E-17  5.27E-17  9.37E-17  8.12E-17  4.46E-17  8.19E-17
  4.91E-17  3.66E-17  8.78E-17  4.43E-17  3.46E-17  7.32E-17  6.73E-17  8.57E-17
  7.68E-17  8.82E-17  9.90E-14  2.58E-09
 -8.8617E-01 -8.8617E-01 -8.8617E-01 -8.8551E-01 -8.8551E-01 -3.7336E-01
 -3.7290E-01 -3.7290E-01 -3.6974E-01 -3.6974E-01 -2.3106E-01  8.9521E-02
  1.5515E-01  1.5515E-01  1.9548E-01  2.8318E-01  2.8318E-01  2.8625E-01
  4.0057E-01  4.4234E-01
  prteigrs : nnsclo,ikpt=  100   38 max resid (incl. the buffer)=  2.57871E-09
 Non-SCF case, kpt   39 (  0.12000  0.00000  0.00000), residuals and eigenvalues=
  4.97E-17  9.56E-17  3.94E-17  8.43E-17  3.65E-17  2.83E-17  9.40E-17  2.44E-17
  3.22E-17  8.09E-17  5.02E-17  9.02E-17  6.08E-17  2.38E-17  4.51E-17  7.90E-17
  9.10E-17  4.73E-17  5.44E-15  2.73E-08
 -8.8617E-01 -8.8617E-01 -8.8617E-01 -8.8551E-01 -8.8551E-01 -3.7332E-01
 -3.7292E-01 -3.7292E-01 -3.6974E-01 -3.6974E-01 -2.3189E-01  9.4920E-02
  1.5624E-01  1.5624E-01  1.9455E-01  2.8172E-01  2.8172E-01  2.8351E-01
  3.9695E-01  4.4440E-01
  prteigrs : nnsclo,ikpt=  100   39 max resid (incl. the buffer)=  2.72800E-08
 Non-SCF case, kpt   40 (  0.11000  0.00000  0.00000), residuals and eigenvalues=
  2.79E-17  4.06E-17  4.42E-17  9.93E-17  6.58E-17  4.29E-17  2.81E-17  7.16E-17
  4.52E-17  5.21E-17  2.64E-17  2.92E-17  9.19E-17  7.05E-17  8.11E-17  5.26E-17
  8.59E-17  9.08E-17  5.35E-15  6.37E-11
 -8.8617E-01 -8.8617E-01 -8.8617E-01 -8.8551E-01 -8.8551E-01 -3.7328E-01
 -3.7294E-01 -3.7294E-01 -3.6974E-01 -3.6974E-01 -2.3267E-01  1.0031E-01
  1.5728E-01  1.5728E-01  1.9331E-01  2.8030E-01  2.8030E-01  2.8109E-01
  3.9330E-01  4.4665E-01
  prteigrs : nnsclo,ikpt=  100   40 max resid (incl. the buffer)=  6.36680E-11
 Non-SCF case, kpt   41 (  0.10000  0.00000  0.00000), residuals and eigenvalues=
  3.96E-17  4.10E-17  5.13E-17  9.70E-17  6.18E-17  4.03E-17  2.92E-17  5.34E-17
  4.19E-17  4.65E-17  3.56E-17  2.55E-17  5.28E-17  9.96E-17  9.78E-17  9.75E-17
  7.31E-17  9.79E-17  1.07E-13  1.81E-10
 -8.8617E-01 -8.8617E-01 -8.8617E-01 -8.8551E-01 -8.8551E-01 -3.7324E-01
 -3.7296E-01 -3.7296E-01 -3.6973E-01 -3.6973E-01 -2.3338E-01  1.0569E-01
  1.5827E-01  1.5827E-01  1.9172E-01  2.7895E-01  2.7895E-01  2.7899E-01
  3.8971E-01  4.4908E-01
  prteigrs : nnsclo,ikpt=  100   41 max resid (incl. the buffer)=  1.81484E-10
 Non-SCF case, kpt   42 (  0.09000  0.00000  0.00000), residuals and eigenvalues=
  9.17E-17  2.56E-17  6.46E-17  5.29E-17  5.14E-17  5.19E-17  8.13E-17  6.89E-17
  3.86E-17  3.82E-17  7.75E-17  6.28E-17  6.70E-17  7.77E-17  6.41E-17  8.45E-17
  5.84E-17  7.63E-17  5.03E-16  3.67E-08
 -8.8617E-01 -8.8617E-01 -8.8617E-01 -8.8551E-01 -8.8551E-01 -3.7320E-01
 -3.7297E-01 -3.7297E-01 -3.6973E-01 -3.6973E-01 -2.3402E-01  1.1104E-01
  1.5920E-01  1.5920E-01  1.8979E-01  2.7720E-01  2.7767E-01  2.7767E-01
  3.8625E-01  4.5167E-01
  prteigrs : nnsclo,ikpt=  100   42 max resid (incl. the buffer)=  3.67293E-08
 Non-SCF case, kpt   43 (  0.08000  0.00000  0.00000), residuals and eigenvalues=
  7.83E-17  8.11E-17  9.24E-17  4.24E-17  2.51E-17  3.61E-17  5.32E-17  3.46E-17
  6.11E-17  3.98E-17  5.05E-17  8.75E-17  6.36E-17  8.57E-17  6.34E-17  3.89E-17
  9.24E-17  8.41E-17  1.09E-15  3.03E-09
 -8.8617E-01 -8.8617E-01 -8.8617E-01 -8.8551E-01 -8.8551E-01 -3.7317E-01
 -3.7299E-01 -3.7299E-01 -3.6973E-01 -3.6973E-01 -2.3460E-01  1.1635E-01
  1.6006E-01  1.6006E-01  1.8751E-01  2.7572E-01  2.7649E-01  2.7649E-01
  3.8298E-01  4.5442E-01
  prteigrs : nnsclo,ikpt=  100   43 max resid (incl. the buffer)=  3.02842E-09
 Non-SCF case, kpt   44 (  0.07000  0.00000  0.00000), residuals and eigenvalues=
  8.48E-17  7.26E-17  8.64E-17  4.24E-17  2.30E-17  2.80E-17  4.93E-17  3.90E-17
  6.43E-17  3.77E-17  4.45E-17  8.14E-17  5.09E-17  7.11E-17  7.43E-17  4.72E-17
  8.88E-17  8.78E-17  6.20E-15  3.61E-09
 -8.8617E-01 -8.8617E-01 -8.8617E-01 -8.8551E-01 -8.8551E-01 -3.7314E-01
 -3.7300E-01 -3.7300E-01 -3.6973E-01 -3.6973E-01 -2.3511E-01  1.2161E-01
  1.6085E-01  1.6085E-01  1.8490E-01  2.7453E-01  2.7541E-01  2.7541E-01
  3.7997E-01  4.5732E-01
  prteigrs : nnsclo,ikpt=  100   44 max resid (incl. the buffer)=  3.60787E-09
 Non-SCF case, kpt   45 (  0.06000  0.00000  0.00000), residuals and eigenvalues=
  3.98E-17  8.97E-17  5.71E-17  6.79E-17  3.82E-17  5.81E-17  8.23E-17  3.29E-17
  3.77E-17  9.86E-17  9.54E-17  7.02E-17  7.60E-17  9.11E-17  8.63E-17  7.34E-17
  8.31E-17  4.89E-17  1.86E-14  6.66E-09
 -8.8617E-01 -8.8617E-01 -8.8617E-01 -8.8551E-01 -8.8551E-01 -3.7311E-01
 -3.7301E-01 -3.7301E-01 -3.6973E-01 -3.6973E-01 -2.3556E-01  1.2680E-01
  1.6155E-01  1.6155E-01  1.8197E-01  2.7360E-01  2.7444E-01  2.7444E-01
  3.7725E-01  4.6035E-01
  prteigrs : nnsclo,ikpt=  100   45 max resid (incl. the buffer)=  6.66433E-09
 Non-SCF case, kpt   46 (  0.05000  0.00000  0.00000), residuals and eigenvalues=
  5.98E-17  2.65E-17  9.70E-17  7.13E-17  6.10E-17  9.12E-17  4.33E-17  7.65E-17
  4.88E-17  4.35E-17  8.29E-17  9.96E-17  7.33E-17  5.70E-17  2.87E-17  6.06E-17
  8.72E-17  9.29E-17  3.35E-15  6.66E-09
 -8.8617E-01 -8.8617E-01 -8.8617E-01 -8.8551E-01 -8.8551E-01 -3.7309E-01
 -3.7302E-01 -3.7302E-01 -3.6973E-01 -3.6973E-01 -2.3594E-01  1.3189E-01
  1.6215E-01  1.6215E-01  1.7876E-01  2.7289E-01  2.7360E-01  2.7360E-01
  3.7488E-01  4.6349E-01
  prteigrs : nnsclo,ikpt=  100   46 max resid (incl. the buffer)=  6.65660E-09
 Non-SCF case, kpt   47 (  0.04000  0.00000  0.00000), residuals and eigenvalues=
  3.70E-17  9.46E-17  4.28E-17  3.00E-17  8.43E-17  5.20E-17  7.35E-17  5.36E-17
  4.43E-17  2.91E-17  8.37E-17  7.79E-17  8.26E-17  8.37E-17  3.04E-17  6.51E-17
  7.00E-17  5.46E-17  5.11E-15  7.06E-07
 -8.8617E-01 -8.8617E-01 -8.8617E-01 -8.8551E-01 -8.8551E-01 -3.7307E-01
 -3.7303E-01 -3.7303E-01 -3.6973E-01 -3.6973E-01 -2.3624E-01  1.3685E-01
  1.6266E-01  1.6266E-01  1.7532E-01  2.7238E-01  2.7290E-01  2.7290E-01
  3.7288E-01  4.6672E-01
  prteigrs : nnsclo,ikpt=  100   47 max resid (incl. the buffer)=  7.06026E-07
 Non-SCF case, kpt   48 (  0.03000  0.00000  0.00000), residuals and eigenvalues=
  3.62E-17  8.37E-17  4.00E-17  2.22E-17  6.16E-17  9.84E-17  7.33E-17  6.25E-17
  2.96E-17  5.95E-17  6.73E-17  5.67E-17  9.23E-17  6.12E-17  5.44E-17  7.86E-17
  5.19E-17  9.94E-17  5.51E-15  1.55E-07
 -8.8617E-01 -8.8617E-01 -8.8617E-01 -8.8551E-01 -8.8551E-01 -3.7306E-01
 -3.7303E-01 -3.7303E-01 -3.6973E-01 -3.6973E-01 -2.3649E-01  1.4160E-01
  1.6306E-01  1.6306E-01  1.7174E-01  2.7202E-01  2.7234E-01  2.7234E-01
  3.7129E-01  4.6996E-01
  prteigrs : nnsclo,ikpt=  100   48 max resid (incl. the buffer)=  1.54735E-07
 Non-SCF case, kpt   49 (  0.02000  0.00000  0.00000), residuals and eigenvalues=
  4.04E-17  3.62E-17  2.79E-17  6.38E-17  3.92E-17  7.15E-17  3.65E-17  4.50E-17
  9.02E-17  2.66E-17  3.92E-17  4.91E-17  9.01E-17  6.56E-17  9.94E-17  4.13E-17
  6.05E-17  9.71E-17  7.08E-16  5.84E-08
 -8.8617E-01 -8.8617E-01 -8.8617E-01 -8.8551E-01 -8.8551E-01 -3.7305E-01
 -3.7304E-01 -3.7304E-01 -3.6973E-01 -3.6973E-01 -2.3666E-01  1.4600E-01
  1.6335E-01  1.6335E-01  1.6816E-01  2.7179E-01  2.7194E-01  2.7194E-01
  3.7013E-01  4.7308E-01
  prteigrs : nnsclo,ikpt=  100   49 max resid (incl. the buffer)=  5.83804E-08
 Non-SCF case, kpt   50 (  0.01000  0.00000  0.00000), residuals and eigenvalues=
  6.92E-17  5.95E-17  3.32E-17  3.05E-17  4.20E-17  4.36E-17  9.20E-17  5.38E-17
  5.33E-17  2.51E-17  3.59E-17  8.87E-17  6.91E-17  4.30E-17  2.55E-17  6.83E-17
  9.92E-17  7.56E-17  2.05E-15  6.63E-06
 -8.8617E-01 -8.8617E-01 -8.8617E-01 -8.8551E-01 -8.8551E-01 -3.7304E-01
 -3.7304E-01 -3.7304E-01 -3.6973E-01 -3.6973E-01 -2.3676E-01  1.4961E-01
  1.6353E-01  1.6353E-01  1.6503E-01  2.7166E-01  2.7170E-01  2.7170E-01
  3.6943E-01  4.7574E-01
  prteigrs : nnsclo,ikpt=  100   50 max resid (incl. the buffer)=  6.63172E-06
 Non-SCF case, kpt   51 (  0.00000  0.00000  0.00000), residuals and eigenvalues=
  5.36E-17  2.43E-17  3.86E-17  4.32E-17  8.81E-17  5.43E-17  4.69E-17  5.04E-17
  3.20E-17  7.40E-17  8.70E-17  6.53E-17  9.32E-17  4.28E-17  9.35E-17  4.12E-17
  7.37E-17  9.58E-17  4.36E-15  6.36E-07
 -8.8617E-01 -8.8617E-01 -8.8617E-01 -8.8551E-01 -8.8551E-01 -3.7304E-01
 -3.7304E-01 -3.7304E-01 -3.6973E-01 -3.6973E-01 -2.3680E-01  1.5122E-01
  1.6359E-01  1.6359E-01  1.6359E-01  2.7161E-01  2.7161E-01  2.7161E-01
  3.6920E-01  4.7689E-01
  prteigrs : nnsclo,ikpt=  100   51 max resid (incl. the buffer)=  6.36300E-07
 Non-SCF case, kpt   52 (  0.00000  0.00862  0.00862), residuals and eigenvalues=
  3.32E-17  6.27E-17  3.65E-17  2.92E-17  4.28E-17  7.05E-17  4.27E-17  7.53E-17
  6.87E-17  6.19E-17  3.15E-17  8.52E-17  5.89E-17  6.90E-17  7.24E-17  9.23E-17
  9.07E-17  4.48E-17  4.20E-15  5.87E-06
 -8.8617E-01 -8.8617E-01 -8.8617E-01 -8.8551E-01 -8.8551E-01 -3.7304E-01
 -3.7304E-01 -3.7304E-01 -3.6973E-01 -3.6973E-01 -2.3676E-01  1.4964E-01
  1.6345E-01  1.6345E-01  1.6516E-01  2.7147E-01  2.7179E-01  2.7179E-01
  3.6943E-01  4.7482E-01
  prteigrs : nnsclo,ikpt=  100   52 max resid (incl. the buffer)=  5.86780E-06
 Non-SCF case, kpt   53 (  0.00000  0.01724  0.01724), residuals and eigenvalues=
  5.93E-17  7.49E-17  9.65E-17  8.45E-17  8.11E-17  6.48E-17  4.80E-17  5.31E-17
  9.67E-17  7.30E-17  9.24E-17  9.51E-17  9.15E-17  8.88E-17  6.52E-17  9.13E-17
  7.52E-17  7.85E-17  3.29E-16  2.46E-06
 -8.8617E-01 -8.8617E-01 -8.8617E-01 -8.8551E-01 -8.8551E-01 -3.7305E-01
 -3.7304E-01 -3.7304E-01 -3.6973E-01 -3.6972E-01 -2.3666E-01  1.4615E-01
  1.6306E-01  1.6306E-01  1.6862E-01  2.7103E-01  2.7231E-01  2.7231E-01
  3.7012E-01  4.7016E-01
  prteigrs : nnsclo,ikpt=  100   53 max resid (incl. the buffer)=  2.46419E-06
 Non-SCF case, kpt   54 (  0.00000  0.02586  0.02586), residuals and eigenvalues=
  6.64E-17  8.00E-17  4.07E-17  3.19E-17  6.75E-17  2.67E-17  3.84E-17  9.91E-17
  8.31E-17  8.40E-17  8.71E-17  4.07E-17  7.10E-17  5.08E-17  9.27E-17  7.11E-17
  7.34E-17  7.67E-17  4.25E-15  2.33E-06
 -8.8617E-01 -8.8617E-01 -8.8617E-01 -8.8551E-01 -8.8551E-01 -3.7307E-01
 -3.7303E-01 -3.7303E-01 -3.6973E-01 -3.6972E-01 -2.3649E-01  1.4199E-01
  1.6241E-01  1.6241E-01  1.7271E-01  2.7032E-01  2.7317E-01  2.7317E-01
  3.7126E-01  4.6491E-01
  prteigrs : nnsclo,ikpt=  100   54 max resid (incl. the buffer)=  2.32849E-06
 Non-SCF case, kpt   55 (  0.00000  0.03448  0.03448), residuals and eigenvalues=
  7.33E-17  8.44E-17  4.61E-17  9.80E-17  6.13E-17  2.68E-17  3.80E-17  3.15E-17
  9.14E-17  8.32E-17  7.77E-17  9.15E-17  8.76E-17  8.66E-17  6.72E-17  6.55E-17
  6.77E-17  5.32E-17  4.25E-15  2.81E-07
 -8.8617E-01 -8.8617E-01 -8.8617E-01 -8.8551E-01 -8.8551E-01 -3.7309E-01
 -3.7302E-01 -3.7302E-01 -3.6973E-01 -3.6972E-01 -2.3625E-01  1.3759E-01
  1.6151E-01  1.6151E-01  1.7703E-01  2.6935E-01  2.7436E-01  2.7436E-01
  3.7283E-01  4.5944E-01
  prteigrs : nnsclo,ikpt=  100   55 max resid (incl. the buffer)=  2.80501E-07
 Non-SCF case, kpt   56 (  0.00000  0.04310  0.04310), residuals and eigenvalues=
  6.93E-17  2.16E-17  7.53E-17  3.46E-17  4.27E-17  7.75E-17  8.06E-17  2.89E-17
  3.96E-17  4.89E-17  6.16E-17  4.29E-17  6.35E-17  6.85E-17  9.97E-17  9.69E-17
  3.95E-17  4.11E-17  2.80E-15  3.54E-08
 -8.8618E-01 -8.8617E-01 -8.8617E-01 -8.8551E-01 -8.8551E-01 -3.7311E-01
 -3.7301E-01 -3.7301E-01 -3.6974E-01 -3.6972E-01 -2.3594E-01  1.3307E-01
  1.6039E-01  1.6039E-01  1.8143E-01  2.6816E-01  2.7585E-01  2.7585E-01
  3.7479E-01  4.5391E-01
  prteigrs : nnsclo,ikpt=  100   56 max resid (incl. the buffer)=  3.54059E-08
 Non-SCF case, kpt   57 (  0.00000  0.05172  0.05172), residuals and eigenvalues=
  6.51E-17  9.85E-17  7.76E-17  3.31E-17  4.36E-17  6.81E-17  6.52E-17  3.31E-17
  5.69E-17  4.03E-17  3.67E-17  8.61E-17  9.72E-17  5.32E-17  9.36E-17  9.54E-17
  8.46E-17  9.16E-17  6.84E-16  1.94E-09
 -8.8618E-01 -8.8617E-01 -8.8617E-01 -8.8551E-01 -8.8551E-01 -3.7314E-01
 -3.7300E-01 -3.7300E-01 -3.6974E-01 -3.6972E-01 -2.3557E-01  1.2849E-01
  1.5907E-01  1.5907E-01  1.8585E-01  2.6677E-01  2.7763E-01  2.7763E-01
  3.7712E-01  4.4838E-01
  prteigrs : nnsclo,ikpt=  100   57 max resid (incl. the buffer)=  1.93810E-09
 Non-SCF case, kpt   58 (  0.00000  0.06034  0.06034), residuals and eigenvalues=
  5.99E-17  8.95E-17  7.73E-17  3.26E-17  4.22E-17  5.70E-17  6.24E-17  3.28E-17
  5.07E-17  3.48E-17  5.85E-17  6.66E-17  9.65E-17  9.62E-17  8.50E-17  9.21E-17
  6.99E-17  5.25E-17  7.73E-16  1.46E-10
 -8.8618E-01 -8.8617E-01 -8.8617E-01 -8.8551E-01 -8.8551E-01 -3.7318E-01
 -3.7298E-01 -3.7298E-01 -3.6975E-01 -3.6972E-01 -2.3513E-01  1.2389E-01
  1.5756E-01  1.5756E-01  1.9026E-01  2.6521E-01  2.7968E-01  2.7968E-01
  3.7978E-01  4.4291E-01
  prteigrs : nnsclo,ikpt=  100   58 max resid (incl. the buffer)=  1.46247E-10
 Non-SCF case, kpt   59 (  0.00000  0.06897  0.06897), residuals and eigenvalues=
  6.38E-17  6.04E-17  4.78E-17  4.72E-17  4.92E-17  3.92E-17  4.98E-17  7.74E-17
  3.14E-17  8.39E-17  4.78E-17  4.73E-17  6.90E-17  7.12E-17  6.77E-17  9.42E-17
  7.73E-17  5.31E-17  3.85E-16  3.84E-12
 -8.8618E-01 -8.8617E-01 -8.8617E-01 -8.8551E-01 -8.8551E-01 -3.7322E-01
 -3.7296E-01 -3.7296E-01 -3.6975E-01 -3.6971E-01 -2.3462E-01  1.1926E-01
  1.5589E-01  1.5589E-01  1.9462E-01  2.6352E-01  2.8198E-01  2.8198E-01
  3.8274E-01  4.3753E-01
  prteigrs : nnsclo,ikpt=  100   59 max resid (incl. the buffer)=  3.83966E-12
 Non-SCF case, kpt   60 (  0.00000  0.07759  0.07759), residuals and eigenvalues=
  6.58E-17  5.19E-17  4.41E-17  4.85E-17  5.05E-17  3.72E-17  4.63E-17  5.83E-17
  3.80E-17  8.67E-17  5.61E-17  5.24E-17  6.83E-17  5.88E-17  9.65E-17  9.37E-17
  6.00E-17  8.39E-17  7.79E-16  9.60E-13
 -8.8618E-01 -8.8617E-01 -8.8617E-01 -8.8551E-01 -8.8550E-01 -3.7326E-01
 -3.7294E-01 -3.7294E-01 -3.6976E-01 -3.6971E-01 -2.3404E-01  1.1463E-01
  1.5407E-01  1.5407E-01  1.9893E-01  2.6173E-01  2.8450E-01  2.8450E-01
  3.8595E-01  4.3228E-01
  prteigrs : nnsclo,ikpt=  100   60 max resid (incl. the buffer)=  9.60354E-13
 Non-SCF case, kpt   61 (  0.00000  0.08621  0.08621), residuals and eigenvalues=
  6.78E-17  4.39E-17  3.95E-17  4.90E-17  5.31E-17  3.85E-17  4.29E-17  4.45E-17
  4.62E-17  8.37E-17  6.01E-17  6.01E-17  9.02E-17  5.93E-17  7.53E-17  8.45E-17
  6.07E-17  9.71E-17  9.22E-16  4.30E-14
 -8.8618E-01 -8.8617E-01 -8.8617E-01 -8.8551E-01 -8.8550E-01 -3.7331E-01
 -3.7292E-01 -3.7292E-01 -3.6977E-01 -3.6971E-01 -2.3340E-01  1.1000E-01
  1.5213E-01  1.5213E-01  2.0315E-01  2.5988E-01  2.8723E-01  2.8723E-01
  3.8937E-01  4.2722E-01
  prteigrs : nnsclo,ikpt=  100   61 max resid (incl. the buffer)=  4.30220E-14
 Non-SCF case, kpt   62 (  0.00000  0.09483  0.09483), residuals and eigenvalues=
  2.36E-17  4.23E-17  3.18E-17  2.86E-17  3.69E-17  4.76E-17  6.47E-17  2.88E-17
  8.89E-17  4.37E-17  7.45E-17  8.70E-17  4.56E-17  3.94E-17  7.13E-17  9.85E-17
  8.14E-17  7.27E-17  1.19E-15  1.48E-12
 -8.8618E-01 -8.8617E-01 -8.8617E-01 -8.8551E-01 -8.8550E-01 -3.7336E-01
 -3.7289E-01 -3.7289E-01 -3.6978E-01 -3.6970E-01 -2.3269E-01  1.0537E-01
  1.5009E-01  1.5009E-01  2.0727E-01  2.5799E-01  2.9014E-01  2.9014E-01
  3.9294E-01  4.2241E-01
  prteigrs : nnsclo,ikpt=  100   62 max resid (incl. the buffer)=  1.47821E-12
 Non-SCF case, kpt   63 (  0.00000  0.10345  0.10345), residuals and eigenvalues=
  2.31E-17  4.34E-17  2.64E-17  2.16E-17  4.19E-17  3.50E-17  4.66E-17  4.34E-17
  8.25E-17  9.27E-17  9.82E-17  9.72E-17  6.01E-17  9.21E-17  9.31E-17  7.59E-17
  9.65E-17  6.37E-17  1.48E-15  1.04E-11
 -8.8618E-01 -8.8616E-01 -8.8616E-01 -8.8551E-01 -8.8550E-01 -3.7342E-01
 -3.7286E-01 -3.7286E-01 -3.6979E-01 -3.6970E-01 -2.3192E-01  1.0075E-01
  1.4796E-01  1.4796E-01  2.1125E-01  2.5610E-01  2.9321E-01  2.9321E-01
  3.9651E-01  4.1798E-01
  prteigrs : nnsclo,ikpt=  100   63 max resid (incl. the buffer)=  1.04246E-11
 Non-SCF case, kpt   64 (  0.00000  0.11207  0.11207), residuals and eigenvalues=
  4.11E-17  4.07E-17  7.90E-17  4.07E-17  6.59E-17  2.80E-17  4.82E-17  5.75E-17
  7.67E-17  9.05E-17  8.28E-17  9.68E-17  7.65E-17  3.60E-17  7.64E-17  7.59E-17
  7.35E-17  9.00E-17  3.80E-14  2.30E-14
 -8.8618E-01 -8.8616E-01 -8.8616E-01 -8.8551E-01 -8.8550E-01 -3.7348E-01
 -3.7283E-01 -3.7283E-01 -3.6980E-01 -3.6969E-01 -2.3108E-01  9.6136E-02
  1.4576E-01  1.4576E-01  2.1505E-01  2.5425E-01  2.9644E-01  2.9644E-01
  3.9973E-01  4.1430E-01
  prteigrs : nnsclo,ikpt=  100   64 max resid (incl. the buffer)=  3.80108E-14
 Non-SCF case, kpt   65 (  0.00000  0.12069  0.12069), residuals and eigenvalues=
  5.51E-17  8.24E-17  3.88E-17  5.28E-17  8.43E-17  4.28E-17  3.45E-17  3.09E-17
  3.48E-17  2.05E-17  9.25E-17  6.22E-17  4.97E-17  5.03E-17  6.09E-17  8.98E-17
  4.06E-17  4.41E-17  2.95E-15  1.08E-15
 -8.8618E-01 -8.8616E-01 -8.8616E-01 -8.8551E-01 -8.8550E-01 -3.7355E-01
 -3.7280E-01 -3.7280E-01 -3.6981E-01 -3.6969E-01 -2.3017E-01  9.1533E-02
  1.4351E-01  1.4351E-01  2.1863E-01  2.5249E-01  2.9980E-01  2.9980E-01
  4.0145E-01  4.1252E-01
  prteigrs : nnsclo,ikpt=  100   65 max resid (incl. the buffer)=  2.94572E-15
 Non-SCF case, kpt   66 (  0.00000  0.12931  0.12931), residuals and eigenvalues=
  7.91E-17  4.01E-17  4.02E-17  3.94E-17  6.85E-17  5.67E-17  3.34E-17  3.45E-17
  2.60E-17  2.32E-17  9.45E-17  4.61E-17  5.40E-17  4.15E-17  9.80E-17  4.32E-17
  8.36E-17  6.24E-17  8.99E-15  2.53E-14
 -8.8618E-01 -8.8616E-01 -8.8616E-01 -8.8551E-01 -8.8550E-01 -3.7362E-01
 -3.7277E-01 -3.7277E-01 -3.6982E-01 -3.6968E-01 -2.2921E-01  8.6943E-02
  1.4122E-01  1.4122E-01  2.2192E-01  2.5088E-01  3.0329E-01  3.0329E-01
  4.0030E-01  4.1402E-01
  prteigrs : nnsclo,ikpt=  100   66 max resid (incl. the buffer)=  2.52885E-14
 Non-SCF case, kpt   67 (  0.00000  0.13793  0.13793), residuals and eigenvalues=
  2.20E-17  5.73E-17  5.50E-17  3.08E-17  6.11E-17  3.22E-17  2.53E-17  4.17E-17
  9.53E-17  9.47E-17  7.74E-17  4.34E-17  6.94E-17  5.26E-17  8.84E-17  8.46E-17
  4.84E-17  9.65E-17  1.34E-14  1.47E-14
 -8.8618E-01 -8.8616E-01 -8.8616E-01 -8.8551E-01 -8.8550E-01 -3.7369E-01
 -3.7273E-01 -3.7273E-01 -3.6984E-01 -3.6968E-01 -2.2818E-01  8.2366E-02
  1.3890E-01  1.3890E-01  2.2480E-01  2.4951E-01  3.0688E-01  3.0688E-01
  3.9750E-01  4.1759E-01
  prteigrs : nnsclo,ikpt=  100   67 max resid (incl. the buffer)=  1.47481E-14
 Non-SCF case, kpt   68 (  0.00000  0.14655  0.14655), residuals and eigenvalues=
  1.99E-17  4.81E-17  3.97E-17  7.40E-17  4.32E-17  8.06E-17  8.87E-17  5.98E-17
  2.05E-17  9.13E-17  9.05E-17  3.41E-17  6.75E-17  4.57E-17  7.44E-17  6.26E-17
  8.51E-17  6.93E-17  1.64E-15  7.94E-15
 -8.8619E-01 -8.8616E-01 -8.8616E-01 -8.8551E-01 -8.8549E-01 -3.7376E-01
 -3.7269E-01 -3.7269E-01 -3.6985E-01 -3.6967E-01 -2.2708E-01  7.7805E-02
  1.3656E-01  1.3656E-01  2.2715E-01  2.4850E-01  3.1057E-01  3.1057E-01
  3.9437E-01  4.2194E-01
  prteigrs : nnsclo,ikpt=  100   68 max resid (incl. the buffer)=  7.93892E-15
 Non-SCF case, kpt   69 (  0.00000  0.15517  0.15517), residuals and eigenvalues=
  5.03E-17  7.51E-17  5.02E-17  6.59E-17  4.51E-17  9.68E-17  4.95E-17  3.47E-17
  8.35E-17  6.91E-17  7.17E-17  8.70E-17  7.81E-17  8.27E-17  5.13E-17  2.91E-17
  4.22E-17  6.35E-17  7.12E-17  1.41E-15
 -8.8619E-01 -8.8615E-01 -8.8615E-01 -8.8551E-01 -8.8549E-01 -3.7384E-01
 -3.7266E-01 -3.7266E-01 -3.6987E-01 -3.6966E-01 -2.2593E-01  7.3261E-02
  1.3421E-01  1.3421E-01  2.2881E-01  2.4800E-01  3.1434E-01  3.1434E-01
  3.9134E-01  4.2664E-01
  prteigrs : nnsclo,ikpt=  100   69 max resid (incl. the buffer)=  1.40534E-15
 Non-SCF case, kpt   70 (  0.00000  0.16379  0.16379), residuals and eigenvalues=
  7.84E-17  2.63E-17  4.60E-17  3.71E-17  7.43E-17  4.25E-17  9.64E-17  7.85E-17
  6.73E-17  2.63E-17  7.52E-17  7.27E-17  8.63E-17  4.64E-17  7.02E-17  7.16E-17
  5.29E-17  7.87E-17  1.23E-16  9.98E-16
 -8.8619E-01 -8.8615E-01 -8.8615E-01 -8.8551E-01 -8.8549E-01 -3.7392E-01
 -3.7261E-01 -3.7261E-01 -3.6988E-01 -3.6966E-01 -2.2472E-01  6.8735E-02
  1.3186E-01  1.3186E-01  2.2967E-01  2.4809E-01  3.1820E-01  3.1820E-01
  3.8857E-01  4.3156E-01
  prteigrs : nnsclo,ikpt=  100   70 max resid (incl. the buffer)=  9.98443E-16
 Non-SCF case, kpt   71 (  0.00000  0.17241  0.17241), residuals and eigenvalues=
  6.72E-17  8.10E-17  2.13E-17  6.99E-17  3.09E-17  9.72E-17  3.55E-17  3.11E-17
  5.33E-17  5.18E-17  7.68E-17  6.38E-17  9.93E-17  8.92E-17  3.87E-17  7.03E-17
  4.73E-17  9.62E-17  6.64E-16  1.54E-16
 -8.8619E-01 -8.8615E-01 -8.8615E-01 -8.8551E-01 -8.8549E-01 -3.7400E-01
 -3.7257E-01 -3.7257E-01 -3.6990E-01 -3.6965E-01 -2.2344E-01  6.4228E-02
  1.2952E-01  1.2952E-01  2.2974E-01  2.4874E-01  3.2213E-01  3.2213E-01
  3.8614E-01  4.3663E-01
  prteigrs : nnsclo,ikpt=  100   71 max resid (incl. the buffer)=  6.64093E-16
 Non-SCF case, kpt   72 (  0.00000  0.18103  0.18103), residuals and eigenvalues=
  8.03E-17  4.20E-17  7.61E-17  6.51E-17  4.83E-17  3.07E-17  8.92E-17  3.55E-17
  9.05E-17  8.21E-17  6.08E-17  5.23E-17  9.99E-17  5.24E-17  5.34E-17  4.26E-17
  5.42E-17  8.46E-17  3.17E-16  3.28E-15
 -8.8619E-01 -8.8615E-01 -8.8615E-01 -8.8551E-01 -8.8549E-01 -3.7408E-01
 -3.7253E-01 -3.7253E-01 -3.6992E-01 -3.6964E-01 -2.2211E-01  5.9742E-02
  1.2719E-01  1.2719E-01  2.2918E-01  2.4976E-01  3.2612E-01  3.2612E-01
  3.8411E-01  4.4184E-01
  prteigrs : nnsclo,ikpt=  100   72 max resid (incl. the buffer)=  3.28296E-15
 Non-SCF case, kpt   73 (  0.00000  0.18966  0.18966), residuals and eigenvalues=
  8.31E-17  4.49E-17  6.31E-17  6.25E-17  5.53E-17  8.72E-17  2.41E-17  3.21E-17
  8.65E-17  7.75E-17  8.44E-17  7.39E-17  7.69E-17  6.40E-17  5.34E-17  2.96E-17
  8.81E-17  9.94E-17  7.85E-16  6.46E-15
 -8.8619E-01 -8.8615E-01 -8.8615E-01 -8.8551E-01 -8.8549E-01 -3.7417E-01
 -3.7249E-01 -3.7249E-01 -3.6994E-01 -3.6964E-01 -2.2072E-01  5.5278E-02
  1.2488E-01  1.2488E-01  2.2821E-01  2.5091E-01  3.3017E-01  3.3017E-01
  3.8250E-01  4.4714E-01
  prteigrs : nnsclo,ikpt=  100   73 max resid (incl. the buffer)=  6.46440E-15
 Non-SCF case, kpt   74 (  0.00000  0.19828  0.19828), residuals and eigenvalues=
  3.53E-17  5.01E-17  3.64E-17  2.95E-17  3.95E-17  6.12E-17  5.80E-17  7.58E-17
  4.63E-17  2.30E-17  5.00E-17  9.26E-17  9.75E-17  6.40E-17  7.79E-17  5.67E-17
  6.58E-17  7.34E-17  1.90E-15  6.97E-13
 -8.8619E-01 -8.8614E-01 -8.8614E-01 -8.8552E-01 -8.8548E-01 -3.7426E-01
 -3.7244E-01 -3.7244E-01 -3.6996E-01 -3.6963E-01 -2.1928E-01  5.0837E-02
  1.2259E-01  1.2259E-01  2.2699E-01  2.5203E-01  3.3427E-01  3.3427E-01
  3.8135E-01  4.5254E-01
  prteigrs : nnsclo,ikpt=  100   74 max resid (incl. the buffer)=  6.97232E-13
 Non-SCF case, kpt   75 (  0.00000  0.20690  0.20690), residuals and eigenvalues=
  4.20E-17  4.47E-17  5.69E-17  2.74E-17  4.61E-17  2.54E-17  3.23E-17  3.48E-17
  5.21E-17  5.19E-17  9.65E-17  4.28E-17  7.92E-17  8.96E-17  9.30E-17  9.66E-17
  8.25E-17  7.55E-17  8.93E-16  1.41E-13
 -8.8620E-01 -8.8614E-01 -8.8614E-01 -8.8552E-01 -8.8548E-01 -3.7434E-01
 -3.7239E-01 -3.7239E-01 -3.6998E-01 -3.6962E-01 -2.1778E-01  4.6421E-02
  1.2034E-01  1.2034E-01  2.2562E-01  2.5298E-01  3.3841E-01  3.3841E-01
  3.8069E-01  4.5802E-01
  prteigrs : nnsclo,ikpt=  100   75 max resid (incl. the buffer)=  1.41059E-13
 Non-SCF case, kpt   76 (  0.00000  0.21552  0.21552), residuals and eigenvalues=
  4.10E-17  4.65E-17  5.79E-17  2.76E-17  4.04E-17  8.71E-17  2.88E-17  4.00E-17
  5.04E-17  5.23E-17  5.68E-17  4.24E-17  4.91E-17  7.15E-17  6.53E-17  7.33E-17
  6.22E-17  8.34E-17  8.30E-16  4.45E-13
 -8.8620E-01 -8.8614E-01 -8.8614E-01 -8.8552E-01 -8.8548E-01 -3.7443E-01
 -3.7235E-01 -3.7235E-01 -3.7000E-01 -3.6961E-01 -2.1622E-01  4.2033E-02
  1.1811E-01  1.1811E-01  2.2418E-01  2.5368E-01  3.4260E-01  3.4260E-01
  3.8051E-01  4.6356E-01
  prteigrs : nnsclo,ikpt=  100   76 max resid (incl. the buffer)=  4.44541E-13
 Non-SCF case, kpt   77 (  0.00000  0.22414  0.22414), residuals and eigenvalues=
  8.99E-17  8.90E-17  2.59E-17  8.98E-17  3.94E-17  4.05E-17  2.98E-17  6.51E-17
  7.23E-17  3.09E-17  7.05E-17  7.16E-17  7.95E-17  3.19E-17  5.98E-17  8.70E-17
  8.37E-17  5.69E-17  8.31E-16  5.60E-12
 -8.8620E-01 -8.8614E-01 -8.8614E-01 -8.8552E-01 -8.8548E-01 -3.7452E-01
 -3.7230E-01 -3.7230E-01 -3.7002E-01 -3.6961E-01 -2.1462E-01  3.7672E-02
  1.1593E-01  1.1593E-01  2.2271E-01  2.5410E-01  3.4683E-01  3.4683E-01
  3.8083E-01  4.6915E-01
  prteigrs : nnsclo,ikpt=  100   77 max resid (incl. the buffer)=  5.59939E-12
 Non-SCF case, kpt   78 (  0.00000  0.23276  0.23276), residuals and eigenvalues=
  6.14E-17  6.98E-17  7.46E-17  7.69E-17  3.87E-17  4.88E-17  2.47E-17  7.95E-17
  3.06E-17  3.79E-17  8.16E-17  8.94E-17  7.63E-17  6.56E-17  5.67E-17  8.58E-17
  8.31E-17  6.18E-17  2.91E-16  8.08E-09
 -8.8620E-01 -8.8613E-01 -8.8613E-01 -8.8552E-01 -8.8548E-01 -3.7461E-01
 -3.7225E-01 -3.7225E-01 -3.7004E-01 -3.6960E-01 -2.1296E-01  3.3342E-02
  1.1379E-01  1.1379E-01  2.2125E-01  2.5422E-01  3.5109E-01  3.5109E-01
  3.8164E-01  4.7478E-01
  prteigrs : nnsclo,ikpt=  100   78 max resid (incl. the buffer)=  8.07771E-09
 Non-SCF case, kpt   79 (  0.00000  0.24138  0.24138), residuals and eigenvalues=
  6.95E-17  8.82E-17  9.51E-17  2.53E-17  8.05E-17  9.85E-17  8.41E-17  6.20E-17
  4.28E-17  9.48E-17  2.96E-17  5.52E-17  5.51E-17  9.76E-17  8.71E-17  7.42E-17
  6.56E-17  5.93E-17  5.35E-16  6.76E-09
 -8.8620E-01 -8.8613E-01 -8.8613E-01 -8.8552E-01 -8.8547E-01 -3.7470E-01
 -3.7220E-01 -3.7220E-01 -3.7007E-01 -3.6959E-01 -2.1126E-01  2.9044E-02
  1.1169E-01  1.1169E-01  2.1981E-01  2.5403E-01  3.5538E-01  3.5538E-01
  3.8292E-01  4.8045E-01
  prteigrs : nnsclo,ikpt=  100   79 max resid (incl. the buffer)=  6.76480E-09
 Non-SCF case, kpt   80 (  0.00000  0.25000  0.25000), residuals and eigenvalues=
  3.37E-17  3.62E-17  6.93E-17  7.18E-17  8.05E-17  8.56E-17  4.72E-17  3.38E-17
  3.30E-17  9.20E-17  5.63E-17  7.06E-17  5.02E-17  8.90E-17  7.87E-17  6.97E-17
  8.79E-17  7.62E-17  3.07E-16  4.35E-07
 -8.8620E-01 -8.8613E-01 -8.8613E-01 -8.8552E-01 -8.8547E-01 -3.7478E-01
 -3.7215E-01 -3.7215E-01 -3.7009E-01 -3.6958E-01 -2.0951E-01  2.4780E-02
  1.0964E-01  1.0964E-01  2.1840E-01  2.5354E-01  3.5970E-01  3.5970E-01
  3.8464E-01  4.8613E-01
  prteigrs : nnsclo,ikpt=  100   80 max resid (incl. the buffer)=  4.34679E-07
 Non-SCF case, kpt   81 (  0.00000  0.25862  0.25862), residuals and eigenvalues=
  5.22E-17  4.33E-17  9.84E-17  4.14E-17  7.28E-17  2.68E-17  3.92E-17  5.86E-17
  2.67E-17  4.58E-17  5.17E-17  4.00E-17  7.71E-17  5.09E-17  8.65E-17  9.86E-17
  4.45E-17  8.59E-17  1.32E-15  7.24E-08
 -8.8620E-01 -8.8613E-01 -8.8613E-01 -8.8552E-01 -8.8547E-01 -3.7487E-01
 -3.7210E-01 -3.7210E-01 -3.7011E-01 -3.6958E-01 -2.0771E-01  2.0554E-02
  1.0764E-01  1.0764E-01  2.1705E-01  2.5279E-01  3.6403E-01  3.6403E-01
  3.8677E-01  4.9181E-01
  prteigrs : nnsclo,ikpt=  100   81 max resid (incl. the buffer)=  7.24219E-08
 Non-SCF case, kpt   82 (  0.00000  0.26724  0.26724), residuals and eigenvalues=
  1.83E-17  2.30E-17  4.60E-17  1.58E-17  4.36E-17  5.56E-17  4.71E-17  8.64E-17
  9.13E-17  2.57E-17  9.08E-17  4.59E-17  6.36E-17  5.79E-17  4.19E-17  7.75E-17
  5.59E-17  5.00E-17  2.02E-16  1.49E-06
 -8.8621E-01 -8.8613E-01 -8.8613E-01 -8.8552E-01 -8.8547E-01 -3.7496E-01
 -3.7205E-01 -3.7205E-01 -3.7014E-01 -3.6957E-01 -2.0588E-01  1.6367E-02
  1.0569E-01  1.0569E-01  2.1574E-01  2.5179E-01  3.6839E-01  3.6839E-01
  3.8928E-01  4.9748E-01
  prteigrs : nnsclo,ikpt=  100   82 max resid (incl. the buffer)=  1.49060E-06
 Non-SCF case, kpt   83 (  0.00000  0.27586  0.27586), residuals and eigenvalues=
  3.20E-17  4.06E-17  6.54E-17  7.81E-17  7.76E-17  3.30E-17  2.97E-17  4.56E-17
  4.33E-17  3.31E-17  3.30E-17  5.29E-17  9.03E-17  8.77E-17  7.72E-17  9.64E-17
  7.54E-17  8.64E-17  5.43E-15  1.51E-06
 -8.8621E-01 -8.8612E-01 -8.8612E-01 -8.8552E-01 -8.8547E-01 -3.7504E-01
 -3.7201E-01 -3.7201E-01 -3.7016E-01 -3.6956E-01 -2.0400E-01  1.2222E-02
  1.0380E-01  1.0380E-01  2.1450E-01  2.5057E-01  3.7277E-01  3.7277E-01
  3.9213E-01  5.0313E-01
  prteigrs : nnsclo,ikpt=  100   83 max resid (incl. the buffer)=  1.51100E-06
 Non-SCF case, kpt   84 (  0.00000  0.28448  0.28448), residuals and eigenvalues=
  3.49E-17  6.79E-17  1.63E-17  9.82E-17  7.75E-17  5.47E-17  9.38E-17  7.89E-17
  9.79E-17  5.96E-17  6.93E-17  3.42E-17  4.84E-17  5.50E-17  3.54E-17  6.99E-17
  9.86E-17  8.50E-17  3.43E-16  1.22E-08
 -8.8621E-01 -8.8612E-01 -8.8612E-01 -8.8552E-01 -8.8546E-01 -3.7513E-01
 -3.7196E-01 -3.7196E-01 -3.7018E-01 -3.6955E-01 -2.0209E-01  8.1235E-03
  1.0197E-01  1.0197E-01  2.1332E-01  2.4917E-01  3.7716E-01  3.7716E-01
  3.9528E-01  5.0870E-01
  prteigrs : nnsclo,ikpt=  100   84 max resid (incl. the buffer)=  1.21669E-08
 Non-SCF case, kpt   85 (  0.00000  0.29310  0.29310), residuals and eigenvalues=
  3.18E-17  7.37E-17  1.99E-17  1.76E-17  7.86E-17  4.05E-17  8.62E-17  8.75E-17
  8.94E-17  4.30E-17  9.40E-17  4.02E-17  7.27E-17  7.55E-17  3.90E-17  7.57E-17
  9.19E-17  9.75E-17  6.99E-16  2.14E-05
 -8.8621E-01 -8.8612E-01 -8.8612E-01 -8.8552E-01 -8.8546E-01 -3.7521E-01
 -3.7191E-01 -3.7191E-01 -3.7020E-01 -3.6955E-01 -2.0015E-01  4.0739E-03
  1.0019E-01  1.0019E-01  2.1220E-01  2.4763E-01  3.8155E-01  3.8155E-01
  3.9869E-01  5.1398E-01
  prteigrs : nnsclo,ikpt=  100   85 max resid (incl. the buffer)=  2.14389E-05
 Non-SCF case, kpt   86 (  0.00000  0.30172  0.30172), residuals and eigenvalues=
  5.97E-17  4.32E-17  9.36E-17  3.19E-17  2.67E-17  4.23E-17  3.77E-17  9.00E-17
  4.49E-17  3.52E-17  3.96E-17  3.80E-17  2.86E-17  6.97E-17  9.24E-17  4.58E-17
  8.09E-17  7.25E-17  1.23E-16  6.57E-05
 -8.8621E-01 -8.8612E-01 -8.8612E-01 -8.8552E-01 -8.8546E-01 -3.7529E-01
 -3.7186E-01 -3.7186E-01 -3.7023E-01 -3.6954E-01 -1.9818E-01  7.7479E-05
  9.8480E-02  9.8480E-02  2.1116E-01  2.4595E-01  3.8596E-01  3.8596E-01
  4.0234E-01  5.1341E-01
  prteigrs : nnsclo,ikpt=  100   86 max resid (incl. the buffer)=  6.56702E-05
 Non-SCF case, kpt   87 (  0.00000  0.31034  0.31034), residuals and eigenvalues=
  7.78E-17  6.45E-17  9.01E-17  2.18E-17  9.46E-17  2.75E-17  9.17E-17  2.22E-17
  4.88E-17  2.43E-17  4.69E-17  3.25E-17  5.09E-17  2.73E-17  3.97E-17  6.69E-17
  8.02E-17  9.94E-17  1.99E-15  5.82E-05
 -8.8621E-01 -8.8611E-01 -8.8611E-01 -8.8552E-01 -8.8546E-01 -3.7537E-01
 -3.7182E-01 -3.7182E-01 -3.7025E-01 -3.6953E-01 -1.9618E-01 -3.8616E-03
  9.6829E-02  9.6829E-02  2.1019E-01  2.4419E-01  3.9037E-01  3.9037E-01
  4.0619E-01  5.1514E-01
  prteigrs : nnsclo,ikpt=  100   87 max resid (incl. the buffer)=  5.82119E-05
 Non-SCF case, kpt   88 (  0.00000  0.31897  0.31897), residuals and eigenvalues=
  6.06E-17  7.84E-17  4.78E-17  3.20E-17  4.78E-17  4.05E-17  3.01E-17  4.47E-17
  7.17E-17  5.67E-17  2.07E-17  4.21E-17  6.82E-17  5.25E-17  3.20E-17  4.60E-17
  7.31E-17  9.85E-17  8.71E-17  1.88E-06
 -8.8622E-01 -8.8611E-01 -8.8611E-01 -8.8552E-01 -8.8546E-01 -3.7545E-01
 -3.7177E-01 -3.7177E-01 -3.7027E-01 -3.6952E-01 -1.9417E-01 -7.7387E-03
  9.5242E-02  9.5242E-02  2.0930E-01  2.4235E-01  3.9477E-01  3.9477E-01
  4.1020E-01  5.1704E-01
  prteigrs : nnsclo,ikpt=  100   88 max resid (incl. the buffer)=  1.88496E-06
 Non-SCF case, kpt   89 (  0.00000  0.32759  0.32759), residuals and eigenvalues=
  5.99E-17  3.55E-17  6.72E-17  3.29E-17  5.93E-17  2.47E-17  5.15E-17  9.52E-17
  8.05E-17  4.92E-17  5.16E-17  5.21E-17  5.90E-17  4.21E-17  6.03E-17  6.92E-17
  7.85E-17  9.85E-17  1.54E-14  2.26E-05
 -8.8622E-01 -8.8611E-01 -8.8611E-01 -8.8552E-01 -8.8546E-01 -3.7552E-01
 -3.7173E-01 -3.7173E-01 -3.7030E-01 -3.6952E-01 -1.9213E-01 -1.1548E-02
  9.3721E-02  9.3721E-02  2.0848E-01  2.4046E-01  3.9917E-01  3.9917E-01
  4.1436E-01  5.1925E-01
  prteigrs : nnsclo,ikpt=  100   89 max resid (incl. the buffer)=  2.26343E-05
 Non-SCF case, kpt   90 (  0.00000  0.33621  0.33621), residuals and eigenvalues=
  5.17E-17  3.02E-17  6.62E-17  2.40E-17  3.36E-17  2.74E-17  4.69E-17  8.86E-17
  7.95E-17  4.16E-17  7.81E-17  5.45E-17  8.20E-17  6.45E-17  3.32E-17  8.13E-17
  5.57E-17  6.67E-17  1.75E-15  4.52E-06
 -8.8622E-01 -8.8611E-01 -8.8611E-01 -8.8552E-01 -8.8545E-01 -3.7560E-01
 -3.7168E-01 -3.7168E-01 -3.7032E-01 -3.6951E-01 -1.9009E-01 -1.5285E-02
  9.2266E-02  9.2266E-02  2.0774E-01  2.3855E-01  4.0357E-01  4.0357E-01
  4.1863E-01  5.2138E-01
  prteigrs : nnsclo,ikpt=  100   90 max resid (incl. the buffer)=  4.51903E-06
 Non-SCF case, kpt   91 (  0.00000  0.34483  0.34483), residuals and eigenvalues=
  3.66E-17  8.95E-17  2.77E-17  3.11E-17  3.11E-17  6.21E-17  4.31E-17  2.48E-17
  5.23E-17  4.11E-17  4.41E-17  8.74E-17  4.11E-17  4.61E-17  7.97E-17  6.52E-17
  8.19E-17  8.93E-17  1.72E-15  3.26E-06
 -8.8622E-01 -8.8611E-01 -8.8611E-01 -8.8552E-01 -8.8545E-01 -3.7567E-01
 -3.7164E-01 -3.7164E-01 -3.7034E-01 -3.6950E-01 -1.8804E-01 -1.8942E-02
  9.0880E-02  9.0880E-02  2.0708E-01  2.3662E-01  4.0794E-01  4.0794E-01
  4.2299E-01  5.2360E-01
  prteigrs : nnsclo,ikpt=  100   91 max resid (incl. the buffer)=  3.25530E-06
 Non-SCF case, kpt   92 (  0.00000  0.35345  0.35345), residuals and eigenvalues=
  3.18E-17  8.23E-17  6.40E-17  2.51E-17  7.11E-17  4.25E-17  7.09E-17  5.38E-17
  2.10E-17  6.97E-17  6.74E-17  7.21E-17  6.19E-17  6.96E-17  8.31E-17  5.68E-17
  7.21E-17  7.17E-17  2.10E-16  1.75E-08
 -8.8622E-01 -8.8610E-01 -8.8610E-01 -8.8552E-01 -8.8545E-01 -3.7573E-01
 -3.7160E-01 -3.7160E-01 -3.7036E-01 -3.6950E-01 -1.8599E-01 -2.2513E-02
  8.9563E-02  8.9563E-02  2.0649E-01  2.3468E-01  4.1229E-01  4.1229E-01
  4.2743E-01  5.2586E-01
  prteigrs : nnsclo,ikpt=  100   92 max resid (incl. the buffer)=  1.75362E-08
 Non-SCF case, kpt   93 (  0.00000  0.36207  0.36207), residuals and eigenvalues=
  2.91E-17  9.60E-17  8.52E-17  7.59E-17  8.44E-17  2.77E-17  4.80E-17  4.00E-17
  3.65E-17  3.37E-17  9.61E-17  8.32E-17  7.03E-17  6.66E-17  6.30E-17  6.97E-17
  9.62E-17  5.99E-17  2.10E-16  1.29E-07
 -8.8622E-01 -8.8610E-01 -8.8610E-01 -8.8553E-01 -8.8545E-01 -3.7580E-01
 -3.7156E-01 -3.7156E-01 -3.7038E-01 -3.6949E-01 -1.8396E-01 -2.5989E-02
  8.8316E-02  8.8316E-02  2.0599E-01  2.3277E-01  4.1662E-01  4.1662E-01
  4.3191E-01  5.2816E-01
[...]
 -10.06224  -10.06039   -6.21028    2.10225    3.66315    4.29475    5.69498    7.52935
   7.62785    8.40254   11.25197   11.51837
 kpt# 176, nband= 20, wtk=  1.00000, kpt=  0.8171  0.9085  0.9085 (reduced coord)
 -24.11405  -24.11384  -24.11368  -24.09589  -24.09572  -10.16321  -10.14688  -10.14408
 -10.06209  -10.06043   -6.23800    2.23617    3.74560    4.31468    5.64132    7.50247
   7.59901    8.30841   11.14041   11.58567
 kpt# 177, nband= 20, wtk=  1.00000, kpt=  0.8293  0.9146  0.9146 (reduced coord)
 -24.11405  -24.11387  -24.11372  -24.09590  -24.09574  -10.16176  -10.14739  -10.14487
 -10.06194  -10.06047   -6.26406    2.37118    3.82556    4.33312    5.58465    7.47871
   7.57206    8.21268   11.02856   11.65796
 kpt# 178, nband= 20, wtk=  1.00000, kpt=  0.8415  0.9207  0.9207 (reduced coord)
 -24.11404  -24.11389  -24.11375  -24.09590  -24.09577  -10.16038  -10.14787  -10.14563
 -10.06179  -10.06050   -6.28845    2.50714    3.90262    4.35010    5.52458    7.45807
   7.54701    8.11694   10.91777   11.73432
 kpt# 179, nband= 20, wtk=  1.00000, kpt=  0.8537  0.9268  0.9268 (reduced coord)
 -24.11404  -24.11391  -24.11379  -24.09590  -24.09579  -10.15907  -10.14833  -10.14636
 -10.06165  -10.06054   -6.31112    2.64386    3.97633    4.36565    5.46070    7.44049
   7.52385    8.02273   10.80922   11.81552
 kpt# 180, nband= 20, wtk=  1.00000, kpt=  0.8659  0.9329  0.9329 (reduced coord)
 -24.11404  -24.11392  -24.11382  -24.09591  -24.09581  -10.15785  -10.14874  -10.14705
 -10.06152  -10.06057   -6.33207    2.78113    4.04627    4.37980    5.39263    7.42589
   7.50256    7.93148   10.70400   11.90116
 kpt# 181, nband= 20, wtk=  1.00000, kpt=  0.8780  0.9390  0.9390 (reduced coord)
 -24.11404  -24.11394  -24.11385  -24.09591  -24.09583  -10.15671  -10.14913  -10.14769
 -10.06139  -10.06060   -6.35126    2.91874    4.11197    4.39258    5.31999    7.41415
   7.48315    7.84450   10.60315   11.99189
 kpt# 182, nband= 20, wtk=  1.00000, kpt=  0.8902  0.9451  0.9451 (reduced coord)
 -24.11403  -24.11395  -24.11388  -24.09591  -24.09584  -10.15566  -10.14948  -10.14829
 -10.06127  -10.06062   -6.36868    3.05640    4.17301    4.40403    5.24249    7.40507
   7.46560    7.76296   10.50767   12.08622
 kpt# 183, nband= 20, wtk=  1.00000, kpt=  0.9024  0.9512  0.9512 (reduced coord)
 -24.11403  -24.11397  -24.11391  -24.09592  -24.09586  -10.15470  -10.14979  -10.14883
 -10.06116  -10.06065   -6.38431    3.19380    4.22895    4.41416    5.15995    7.39843
   7.44992    7.68789   10.41857   12.18370
 kpt# 184, nband= 20, wtk=  1.00000, kpt=  0.9146  0.9573  0.9573 (reduced coord)
 -24.11403  -24.11398  -24.11394  -24.09592  -24.09588  -10.15385  -10.15007  -10.14932
 -10.06107  -10.06067   -6.39814    3.33056    4.27938    4.42303    5.07232    7.39393
   7.43609    7.62013   10.33685   12.28588
 kpt# 185, nband= 20, wtk=  1.00000, kpt=  0.9268  0.9634  0.9634 (reduced coord)
 -24.11403  -24.11399  -24.11396  -24.09592  -24.09589  -10.15310  -10.15031  -10.14976
 -10.06098  -10.06068   -6.41015    3.46617    4.32392    4.43064    4.97973    7.39123
   7.42411    7.56037   10.26348   12.39384
 kpt# 186, nband= 20, wtk=  1.00000, kpt=  0.9390  0.9695  0.9695 (reduced coord)
 -24.11402  -24.11400  -24.11398  -24.09592  -24.09590  -10.15246  -10.15052  -10.15013
 -10.06091  -10.06070   -6.42033    3.59997    4.36222    4.43704    4.88260    7.38992
   7.41398    7.50915   10.19943   12.50232
 kpt# 187, nband= 20, wtk=  1.00000, kpt=  0.9512  0.9756  0.9756 (reduced coord)
 -24.11402  -24.11401  -24.11399  -24.09592  -24.09591  -10.15194  -10.15069  -10.15043
 -10.06085  -10.06071   -6.42867    3.73091    4.39398    4.44224    4.78179    7.38962
   7.40570    7.46686   10.14559   12.61453
 kpt# 188, nband= 20, wtk=  1.00000, kpt=  0.9634  0.9817  0.9817 (reduced coord)
 -24.11402  -24.11401  -24.11400  -24.09592  -24.09592  -10.15152  -10.15082  -10.15068
 -10.06080  -10.06072   -6.43517    3.85713    4.41895    4.44626    4.67905    7.38990
   7.39927    7.43376   10.10276   12.72881
 kpt# 189, nband= 20, wtk=  1.00000, kpt=  0.9756  0.9878  0.9878 (reduced coord)
 -24.11402  -24.11402  -24.11401  -24.09592  -24.09592  -10.15123  -10.15091  -10.15085
 -10.06076  -10.06073   -6.43982    3.97454    4.43694    4.44912    4.57844    7.39040
   7.39467    7.41003   10.07164   12.83490
 kpt# 190, nband= 20, wtk=  1.00000, kpt=  0.9878  0.9939  0.9939 (reduced coord)
 -24.11402  -24.11402  -24.11402  -24.09593  -24.09592  -10.15105  -10.15097  -10.15095
 -10.06074  -10.06073   -6.44261    4.07160    4.44778    4.45084    4.49146    7.39083
   7.39191    7.39576   10.05274   12.93550
 kpt# 191, nband= 20, wtk=  1.00000, kpt=  1.0000  1.0000  1.0000 (reduced coord)
 -24.11402  -24.11402  -24.11402  -24.09593  -24.09593  -10.15099  -10.15099  -10.15099
 -10.06074  -10.06074   -6.44354    4.11501    4.45141    4.45141    4.45141    7.39099
   7.39099    7.39099   10.04641   12.97964

== END DATASET(S) ==============================================================
================================================================================
  
 -outvars: echo values of variables after computation  --------
            acell      1.2182413650E+01  1.2182413650E+01  1.2182413650E+01 Bohr
              amu      1.14820000E+02  1.21753000E+02
        autoparal           1
           diemac      1.60000000E+01
             ecut      4.20000000E+01 Hartree
           enunit1          0
           enunit2          1
           etotal1    -1.5699465746E+02
            fcart1     3.4535505706E-31 -1.0360651712E-30  3.4535505706E-31
                      -3.4535505706E-31  1.0360651712E-30 -3.4535505706E-31
-          fftalg         312
           getden1          0
           getden2         -1
             iscf1          7
             iscf2         -2
           istwfk2       3    0    0    0    0    0    0    0    0    0
                         0    0    0    0    0    0    0    0    0    0
                         0    0    0    0    0    0    0    0    0    0
                         0    0    0    0    0    0    0    0    0    0
                         0    0    0    0    0    0    0    0    0    0
                       outvar_i_n : Printing only first  50 k-points.
              ixc       -1012
           jdtset        1    2
              kpt1    -1.25000000E-01 -2.50000000E-01  0.00000000E+00
                      -1.25000000E-01  5.00000000E-01  0.00000000E+00
                      -2.50000000E-01 -3.75000000E-01  0.00000000E+00
                      -1.25000000E-01 -3.75000000E-01  1.25000000E-01
                      -1.25000000E-01  2.50000000E-01  0.00000000E+00
                      -2.50000000E-01  3.75000000E-01  0.00000000E+00
                      -3.75000000E-01  5.00000000E-01  0.00000000E+00
                      -2.50000000E-01  5.00000000E-01  1.25000000E-01
                      -1.25000000E-01  0.00000000E+00  0.00000000E+00
                      -3.75000000E-01  0.00000000E+00  0.00000000E+00
              kpt2     5.00000000E-01  0.00000000E+00  0.00000000E+00
                       4.90000000E-01  0.00000000E+00  0.00000000E+00
                       4.80000000E-01  0.00000000E+00  0.00000000E+00
                       4.70000000E-01  0.00000000E+00  0.00000000E+00
                       4.60000000E-01  0.00000000E+00  0.00000000E+00
                       4.50000000E-01  0.00000000E+00  0.00000000E+00
                       4.40000000E-01  0.00000000E+00  0.00000000E+00
                       4.30000000E-01  0.00000000E+00  0.00000000E+00
                       4.20000000E-01  0.00000000E+00  0.00000000E+00
                       4.10000000E-01  0.00000000E+00  0.00000000E+00
                       4.00000000E-01  0.00000000E+00  0.00000000E+00
                       3.90000000E-01  0.00000000E+00  0.00000000E+00
                       3.80000000E-01  0.00000000E+00  0.00000000E+00
                       3.70000000E-01  0.00000000E+00  0.00000000E+00
                       3.60000000E-01  0.00000000E+00  0.00000000E+00
                       3.50000000E-01  0.00000000E+00  0.00000000E+00
                       3.40000000E-01  0.00000000E+00  0.00000000E+00
                       3.30000000E-01  0.00000000E+00  0.00000000E+00
                       3.20000000E-01  0.00000000E+00  0.00000000E+00
                       3.10000000E-01  0.00000000E+00  0.00000000E+00
                       3.00000000E-01  0.00000000E+00  0.00000000E+00
                       2.90000000E-01  0.00000000E+00  0.00000000E+00
                       2.80000000E-01  0.00000000E+00  0.00000000E+00
                       2.70000000E-01  0.00000000E+00  0.00000000E+00
                       2.60000000E-01  0.00000000E+00  0.00000000E+00
                       2.50000000E-01  0.00000000E+00  0.00000000E+00
                       2.40000000E-01  0.00000000E+00  0.00000000E+00
                       2.30000000E-01  0.00000000E+00  0.00000000E+00
                       2.20000000E-01  0.00000000E+00  0.00000000E+00
                       2.10000000E-01  0.00000000E+00  0.00000000E+00
                       2.00000000E-01  0.00000000E+00  0.00000000E+00
                       1.90000000E-01  0.00000000E+00  0.00000000E+00
                       1.80000000E-01  0.00000000E+00  0.00000000E+00
                       1.70000000E-01  0.00000000E+00  0.00000000E+00
                       1.60000000E-01  0.00000000E+00  0.00000000E+00
                       1.50000000E-01  0.00000000E+00  0.00000000E+00
                       1.40000000E-01  0.00000000E+00  0.00000000E+00
                       1.30000000E-01  0.00000000E+00  0.00000000E+00
                       1.20000000E-01  0.00000000E+00  0.00000000E+00
                       1.10000000E-01  0.00000000E+00  0.00000000E+00
                       1.00000000E-01  0.00000000E+00  0.00000000E+00
                       9.00000000E-02  0.00000000E+00  0.00000000E+00
                       8.00000000E-02  0.00000000E+00  0.00000000E+00
                       7.00000000E-02  0.00000000E+00  0.00000000E+00
                       6.00000000E-02  0.00000000E+00  0.00000000E+00
                       5.00000000E-02  0.00000000E+00  0.00000000E+00
                       4.00000000E-02  0.00000000E+00  0.00000000E+00
                       3.00000000E-02  0.00000000E+00  0.00000000E+00
                       2.00000000E-02  0.00000000E+00  0.00000000E+00
                       1.00000000E-02  0.00000000E+00  0.00000000E+00
                       outvar_i_n : Printing only first  50 k-points.
           kptopt1          1
           kptopt2         -3
         kptrlatt        4   -4    4     -4    4    4     -4   -4    4
          kptrlen1     4.87296546E+01
          kptrlen2     3.00000000E+01
P           mkmem1          2
P           mkmem2         24
            natom           2
            nband1         15
            nband2         20
           nbdbuf1          0
           nbdbuf2          2
           ndtset           2
           ndivsm1          0
           ndivsm2         50
            ngfft          54      54      54
             nkpt1         10
             nkpt2        191
-           npkpt           8
            nstep         100
             nsym          24
           ntypat           2
              occ      2.000000  2.000000  2.000000  2.000000  2.000000  2.000000
                       2.000000  2.000000  2.000000  2.000000  2.000000  2.000000
                       2.000000  2.000000  0.000000
            rprim      0.0000000000E+00  5.0000000000E-01  5.0000000000E-01
                       5.0000000000E-01  0.0000000000E+00  5.0000000000E-01
                       5.0000000000E-01  5.0000000000E-01  0.0000000000E+00
           shiftk      5.00000000E-01  5.00000000E-01  5.00000000E-01
          spgroup         216
           strten1     6.0608915388E-07  6.0608915388E-07  6.0608915388E-07
                       0.0000000000E+00  0.0000000000E+00  0.0000000000E+00
           symrel      1  0  0   0  1  0   0  0  1       0 -1  1   0 -1  0   1 -1  0
                      -1  0  0  -1  0  1  -1  1  0       0  1 -1   1  0 -1   0  0 -1
                      -1  0  0  -1  1  0  -1  0  1       0 -1  1   1 -1  0   0 -1  0
                       1  0  0   0  0  1   0  1  0       0  1 -1   0  0 -1   1  0 -1
                      -1  0  1  -1  1  0  -1  0  0       0 -1  0   1 -1  0   0 -1  1
                       1  0 -1   0  0 -1   0  1 -1       0  1  0   0  0  1   1  0  0
                       1  0 -1   0  1 -1   0  0 -1       0 -1  0   0 -1  1   1 -1  0
                      -1  0  1  -1  0  0  -1  1  0       0  1  0   1  0  0   0  0  1
                       0  0 -1   0  1 -1   1  0 -1       1 -1  0   0 -1  1   0 -1  0
                       0  0  1   1  0  0   0  1  0      -1  1  0  -1  0  0  -1  0  1
                       0  0  1   0  1  0   1  0  0       1 -1  0   0 -1  0   0 -1  1
                       0  0 -1   1  0 -1   0  1 -1      -1  1  0  -1  0  1  -1  0  0
           toldfe1     1.00000000E-12 Hartree
           toldfe2     0.00000000E+00 Hartree
           tolwfr1     0.00000000E+00
           tolwfr2     1.00000000E-16
            typat      1  2
              wtk1       0.09375    0.09375    0.09375    0.18750    0.09375    0.09375
                         0.09375    0.18750    0.03125    0.03125
              wtk2       1.00000    1.00000    1.00000    1.00000    1.00000    1.00000
                         1.00000    1.00000    1.00000    1.00000    1.00000    1.00000
                         1.00000    1.00000    1.00000    1.00000    1.00000    1.00000
                         1.00000    1.00000    1.00000    1.00000    1.00000    1.00000
                         1.00000    1.00000    1.00000    1.00000    1.00000    1.00000
                         1.00000    1.00000    1.00000    1.00000    1.00000    1.00000
                         1.00000    1.00000    1.00000    1.00000    1.00000    1.00000
                         1.00000    1.00000    1.00000    1.00000    1.00000    1.00000
                         1.00000    1.00000
                       outvars : Printing only first  50 k-points.
           xangst      0.0000000000E+00  0.0000000000E+00  0.0000000000E+00
                       1.6116639123E+00  1.6116639123E+00  1.6116639123E+00
            xcart      0.0000000000E+00  0.0000000000E+00  0.0000000000E+00
                       3.0456034125E+00  3.0456034125E+00  3.0456034125E+00
             xred      0.0000000000E+00  0.0000000000E+00  0.0000000000E+00
                       2.5000000000E-01  2.5000000000E-01  2.5000000000E-01
            znucl       49.00000   51.00000

================================================================================


- Timing analysis has been suppressed with timopt=0



================================================================================

 Suggested references for the acknowledgment of ABINIT usage.

 The users of ABINIT have little formal obligations with respect to the ABINIT group
 (those specified in the GNU General Public License, http://www.gnu.org/copyleft/gpl.txt).
 However, it is common practice in the scientific literature,
 to acknowledge the efforts of people that have made the research possible.
 In this spirit, please find below suggested citations of work written by ABINIT developers,
 corresponding to implementations inside of ABINIT that you have used in the present run.
 Note also that it will be of great value to readers of publications presenting these results,
 to read papers enabling them to understand the theoretical formalism and details
 of the ABINIT implementation.
 For information on why they are suggested, see also https://docs.abinit.org/theory/acknowledgments.
-
- [1] Libxc: A library of exchange and correlation functionals for density functional theory.
- M.A.L. Marques, M.J.T. Oliveira, T. Burnus, Computer Physics Communications 183, 2227 (2012).
- Comment: to be cited when LibXC is used (negative value of ixc)
- Strong suggestion to cite this paper.
- DOI and bibtex: see https://docs.abinit.org/theory/bibliography/#marques2012
-
- [2] The Abinit project: Impact, environment and recent developments.
- Computer Phys. Comm. 248, 107042 (2020).
- X.Gonze, B. Amadon, G. Antonius, F.Arnardi, L.Baguet, J.-M.Beuken,
- J.Bieder, F.Bottin, J.Bouchet, E.Bousquet, N.Brouwer, F.Bruneval,
- G.Brunin, T.Cavignac, J.-B. Charraud, Wei Chen, M.Cote, S.Cottenier,
- J.Denier, G.Geneste, Ph.Ghosez, M.Giantomassi, Y.Gillet, O.Gingras,
- D.R.Hamann, G.Hautier, Xu He, N.Helbig, N.Holzwarth, Y.Jia, F.Jollet,
- W.Lafargue-Dit-Hauret, K.Lejaeghere, M.A.L.Marques, A.Martin, C.Martins,
- H.P.C. Miranda, F.Naccarato, K. Persson, G.Petretto, V.Planes, Y.Pouillon,
- S.Prokhorenko, F.Ricci, G.-M.Rignanese, A.H.Romero, M.M.Schmitt, M.Torrent,
- M.J.van Setten, B.Van Troeye, M.J.Verstraete, G.Zerah and J.W.Zwanzig
- Comment: the fifth generic paper describing the ABINIT project.
- Note that a version of this paper, that is not formatted for Computer Phys. Comm. 
- is available at https://www.abinit.org/sites/default/files/ABINIT20.pdf .
- The licence allows the authors to put it on the Web.
- DOI and bibtex: see https://docs.abinit.org/theory/bibliography/#gonze2020
-
- [3] Optimized norm-conserving Vanderbilt pseudopotentials.
- D.R. Hamann, Phys. Rev. B 88, 085117 (2013).
- Comment: Some pseudopotential generated using the ONCVPSP code were used.
- DOI and bibtex: see https://docs.abinit.org/theory/bibliography/#hamann2013
-
- [4] ABINIT: Overview, and focus on selected capabilities
- J. Chem. Phys. 152, 124102 (2020).
- A. Romero, D.C. Allan, B. Amadon, G. Antonius, T. Applencourt, L.Baguet,
- J.Bieder, F.Bottin, J.Bouchet, E.Bousquet, F.Bruneval,
- G.Brunin, D.Caliste, M.Cote,
- J.Denier, C. Dreyer, Ph.Ghosez, M.Giantomassi, Y.Gillet, O.Gingras,
- D.R.Hamann, G.Hautier, F.Jollet, G. Jomard,
- A.Martin, 
- H.P.C. Miranda, F.Naccarato, G.Petretto, N.A. Pike, V.Planes,
- S.Prokhorenko, T. Rangel, F.Ricci, G.-M.Rignanese, M.Royo, M.Stengel, M.Torrent,
- M.J.van Setten, B.Van Troeye, M.J.Verstraete, J.Wiktor, J.W.Zwanziger, and X.Gonze.
- Comment: a global overview of ABINIT, with focus on selected capabilities .
- Note that a version of this paper, that is not formatted for J. Chem. Phys 
- is available at https://www.abinit.org/sites/default/files/ABINIT20_JPC.pdf .
- The licence allows the authors to put it on the Web.
- DOI and bibtex: see https://docs.abinit.org/theory/bibliography/#romero2020
-
- [5] Recent developments in the ABINIT software package.
- Computer Phys. Comm. 205, 106 (2016).
- X.Gonze, F.Jollet, F.Abreu Araujo, D.Adams, B.Amadon, T.Applencourt,
- C.Audouze, J.-M.Beuken, J.Bieder, A.Bokhanchuk, E.Bousquet, F.Bruneval
- D.Caliste, M.Cote, F.Dahm, F.Da Pieve, M.Delaveau, M.Di Gennaro,
- B.Dorado, C.Espejo, G.Geneste, L.Genovese, A.Gerossier, M.Giantomassi,
- Y.Gillet, D.R.Hamann, L.He, G.Jomard, J.Laflamme Janssen, S.Le Roux,
- A.Levitt, A.Lherbier, F.Liu, I.Lukacevic, A.Martin, C.Martins,
- M.J.T.Oliveira, S.Ponce, Y.Pouillon, T.Rangel, G.-M.Rignanese,
- A.H.Romero, B.Rousseau, O.Rubel, A.A.Shukri, M.Stankovski, M.Torrent,
- M.J.Van Setten, B.Van Troeye, M.J.Verstraete, D.Waroquier, J.Wiktor,
- B.Xu, A.Zhou, J.W.Zwanziger.
- Comment: the fourth generic paper describing the ABINIT project.
- Note that a version of this paper, that is not formatted for Computer Phys. Comm. 
- is available at https://www.abinit.org/sites/default/files/ABINIT16.pdf .
- The licence allows the authors to put it on the Web.
- DOI and bibtex: see https://docs.abinit.org/theory/bibliography/#gonze2016
-
- Proc.   0 individual time (sec): cpu=        313.5  wall=        420.4

================================================================================

 Calculation completed.
.Delivered   0 WARNINGs and   0 COMMENTs to log file.
+Overall time at end (sec) : cpu=       2468.9  wall=       3363.3
