
.Version 9.2.2 of ABINIT 
.(MPI version, prepared for a arm_darwin20.2.0_gnu10.2 computer) 

.Copyright (C) 1998-2020 ABINIT group . 
 ABINIT comes with ABSOLUTELY NO WARRANTY.
 It is free software, and you are welcome to redistribute it
 under certain conditions (GNU General Public License,
 see ~abinit/COPYING or http://www.gnu.org/copyleft/gpl.txt).

 ABINIT is a project of the Universite Catholique de Louvain,
 Corning Inc. and other collaborators, see ~abinit/doc/developers/contributors.txt .
 Please read https://docs.abinit.org/theory/acknowledgments for suggested
 acknowledgments of the ABINIT effort.
 For more information, see https://www.abinit.org .

.Starting date : Mon  8 Mar 2021.
- ( at 01h00 )
  
- input  file    -> NLO_3.abi
- output file    -> NLO_3.abo
- root for input  files -> NLO_3i
- root for output files -> NLO_3o


 DATASET    1 : space group F-4 3 m (#216); Bravais cF (face-center cubic)
================================================================================
 Values of the parameters that define the memory need for DATASET  1.
     intxc =       0    ionmov =       0      iscf =       7    lmnmax =       6
     lnmax =       6     mgfft =      54  mpssoang =       3    mqgrid =    3001
     natom =       2  nloc_mem =       1    nspden =       1   nspinor =       1
    nsppol =       1      nsym =      24    n1xccc =    2501    ntypat =       2
    occopt =       1   xclevel =       1
-    mband =          14        mffmem =           1         mkmem =           8
       mpw =        6824          nfft =      157464          nkpt =          60
================================================================================
P This job should need less than                      59.227 Mbytes of memory.
  Rough estimation (10% accuracy) of disk space for files :
_ WF disk file :     87.468 Mbytes ; DEN or POT disk file :      1.203 Mbytes.
================================================================================


 DATASET    2 : space group F-4 3 m (#216); Bravais cF (face-center cubic)
================================================================================
 Values of the parameters that define the memory need for DATASET  2.
     intxc =       0    ionmov =       0      iscf =      -2    lmnmax =       6
     lnmax =       6     mgfft =      54  mpssoang =       3    mqgrid =    3001
     natom =       2  nloc_mem =       1    nspden =       1   nspinor =       1
    nsppol =       1      nsym =      24    n1xccc =    2501    ntypat =       2
    occopt =       1   xclevel =       1
-    mband =          14        mffmem =           1         mkmem =         128
       mpw =        6824          nfft =      157464          nkpt =        1024
================================================================================
P This job should need less than                     226.367 Mbytes of memory.
  Rough estimation (10% accuracy) of disk space for files :
_ WF disk file :   1492.752 Mbytes ; DEN or POT disk file :      1.203 Mbytes.
================================================================================


 DATASET    3 : space group F-4 3 m (#216); Bravais cF (face-center cubic)
================================================================================
 Values of the parameters that define the memory need for DATASET  3 (RF).
     intxc =       0      iscf =       7    lmnmax =       6     lnmax =       6
     mgfft =      54  mpssoang =       3    mqgrid =    3001     natom =       2
  nloc_mem =       1    nspden =       1   nspinor =       1    nsppol =       1
      nsym =      24    n1xccc =    2501    ntypat =       2    occopt =       1
   xclevel =       1
-    mband =          14        mffmem =           1         mkmem =         128
-   mkqmem =         128        mk1mem =         128           mpw =        6824
      nfft =      157464          nkpt =        1024
================================================================================
P This job should need less than                     620.660 Mbytes of memory.
  Rough estimation (10% accuracy) of disk space for files :
_ WF disk file :   1492.752 Mbytes ; DEN or POT disk file :      1.203 Mbytes.
================================================================================


 DATASET    4 : space group F-4 3 m (#216); Bravais cF (face-center cubic)
================================================================================
 Values of the parameters that define the memory need for DATASET  4 (RF).
     intxc =       0      iscf =       7    lmnmax =       6     lnmax =       6
     mgfft =      54  mpssoang =       3    mqgrid =    3001     natom =       2
  nloc_mem =       1    nspden =       1   nspinor =       1    nsppol =       1
      nsym =      24    n1xccc =    2501    ntypat =       2    occopt =       1
   xclevel =       1
-    mband =          14        mffmem =           1         mkmem =         128
-   mkqmem =         128        mk1mem =         128           mpw =        6824
      nfft =      157464          nkpt =        1024
================================================================================
P This job should need less than                     620.660 Mbytes of memory.
  Rough estimation (10% accuracy) of disk space for files :
_ WF disk file :   1492.752 Mbytes ; DEN or POT disk file :      1.203 Mbytes.
================================================================================


 DATASET    5 : space group F-4 3 m (#216); Bravais cF (face-center cubic)
================================================================================
 Values of the parameters that define the memory need for DATASET  5 (RF).
     intxc =       0      iscf =       7    lmnmax =      18     lnmax =       6
     mgfft =      54  mpssoang =       3    mqgrid =    3001     natom =       2
  nloc_mem =       1    nspden =       1   nspinor =       1    nsppol =       1
      nsym =      24    n1xccc =    2501    ntypat =       2    occopt =       1
   xclevel =       1
-    mband =          14        mffmem =           1         mkmem =         128
-   mkqmem =         128        mk1mem =         128           mpw =        6824
      nfft =      157464          nkpt =        1024
================================================================================
P This job should need less than                     691.673 Mbytes of memory.
  Rough estimation (10% accuracy) of disk space for files :
_ WF disk file :   1492.752 Mbytes ; DEN or POT disk file :      1.203 Mbytes.
================================================================================


 DATASET    6 : space group F-4 3 m (#216); Bravais cF (face-center cubic)
================================================================================
 Values of the parameters that define the memory need for DATASET  6 (RF).
     intxc =       0      iscf =       7    lmnmax =      18     lnmax =       6
     mgfft =      54  mpssoang =       3    mqgrid =    3001     natom =       2
  nloc_mem =       1    nspden =       1   nspinor =       1    nsppol =       1
      nsym =      24    n1xccc =    2501    ntypat =       2    occopt =       1
   xclevel =       1
-    mband =          14        mffmem =           1         mkmem =         128
-   mkqmem =         128        mk1mem =         128           mpw =        6824
      nfft =      157464          nkpt =        1024
================================================================================
P This job should need less than                     691.673 Mbytes of memory.
  Rough estimation (10% accuracy) of disk space for files :
_ WF disk file :   1492.752 Mbytes ; DEN or POT disk file :      1.203 Mbytes.
================================================================================


 DATASET    7 : space group F-4 3 m (#216); Bravais cF (face-center cubic)
================================================================================
 Values of the parameters that define the memory need for DATASET  7.
     intxc =       0    ionmov =       0      iscf =       7    lmnmax =       6
     lnmax =       6     mgfft =      54  mpssoang =       3    mqgrid =    3001
     natom =       2  nloc_mem =       1    nspden =       1   nspinor =       1
    nsppol =       1      nsym =      24    n1xccc =    2501    ntypat =       2
    occopt =       1   xclevel =       1
-    mband =          14        mffmem =           1         mkmem =         128
       mpw =        6824          nfft =      157464          nkpt =        1024
================================================================================
P This job should need less than                     245.589 Mbytes of memory.
  Rough estimation (10% accuracy) of disk space for files :
_ WF disk file :   1492.752 Mbytes ; DEN or POT disk file :      1.203 Mbytes.
================================================================================

--------------------------------------------------------------------------------
------------- Echo of variables that govern the present computation ------------
--------------------------------------------------------------------------------
-
- outvars: echo of selected default values                                      
-   iomode0 =  0 , fftalg0 =312 , wfoptalg0 =  0
-
- outvars: echo of global parameters not present in the input file              
-  max_nthreads =    8
-
 -outvars: echo values of preprocessed input variables --------
            acell      1.2182672280E+01  1.2182672280E+01  1.2182672280E+01 Bohr
              amu      1.14820000E+02  1.21753000E+02
        autoparal1          1
        autoparal2          0
        autoparal3          0
        autoparal4          0
        autoparal5          0
        autoparal6          0
        autoparal7          0
          dilatmx      1.05000000E+00
  d3e_pert1_atpol1          1       1
  d3e_pert1_atpol2          1       1
  d3e_pert1_atpol3          1       1
  d3e_pert1_atpol4          1       1
  d3e_pert1_atpol5          1       1
  d3e_pert1_atpol6          1       1
  d3e_pert1_atpol7          1       2
    d3e_pert1_dir1          0       0       0
    d3e_pert1_dir2          0       0       0
    d3e_pert1_dir3          0       0       0
    d3e_pert1_dir4          0       0       0
    d3e_pert1_dir5          0       0       0
    d3e_pert1_dir6          0       0       0
    d3e_pert1_dir7          1       1       1
   d3e_pert1_elfd1          0
   d3e_pert1_elfd2          0
   d3e_pert1_elfd3          0
   d3e_pert1_elfd4          0
   d3e_pert1_elfd5          0
   d3e_pert1_elfd6          0
   d3e_pert1_elfd7          1
   d3e_pert1_phon1          0
   d3e_pert1_phon2          0
   d3e_pert1_phon3          0
   d3e_pert1_phon4          0
   d3e_pert1_phon5          0
   d3e_pert1_phon6          0
   d3e_pert1_phon7          1
    d3e_pert2_dir1          0       0       0
    d3e_pert2_dir2          0       0       0
    d3e_pert2_dir3          0       0       0
    d3e_pert2_dir4          0       0       0
    d3e_pert2_dir5          0       0       0
    d3e_pert2_dir6          0       0       0
    d3e_pert2_dir7          1       1       1
   d3e_pert2_elfd1          0
   d3e_pert2_elfd2          0
   d3e_pert2_elfd3          0
   d3e_pert2_elfd4          0
   d3e_pert2_elfd5          0
   d3e_pert2_elfd6          0
   d3e_pert2_elfd7          1
    d3e_pert3_dir1          0       0       0
    d3e_pert3_dir2          0       0       0
    d3e_pert3_dir3          0       0       0
    d3e_pert3_dir4          0       0       0
    d3e_pert3_dir5          0       0       0
    d3e_pert3_dir6          0       0       0
    d3e_pert3_dir7          1       1       1
   d3e_pert3_elfd1          0
   d3e_pert3_elfd2          0
   d3e_pert3_elfd3          0
   d3e_pert3_elfd4          0
   d3e_pert3_elfd5          0
   d3e_pert3_elfd6          0
   d3e_pert3_elfd7          1
             ecut      4.20000000E+01 Hartree
           ecutsm      5.00000000E-01 Hartree
-          fftalg         312
           getddk1          0
           getddk2          0
           getddk3          0
           getddk4          3
           getddk5          3
           getddk6          3
           getddk7          3
         getdelfd1          0
         getdelfd2          0
         getdelfd3          0
         getdelfd4          0
         getdelfd5          0
         getdelfd6          4
         getdelfd7          0
          getdkdk1          0
          getdkdk2          0
          getdkdk3          0
          getdkdk4          0
          getdkdk5          0
          getdkdk6          5
          getdkdk7          0
          getdkde1          0
          getdkde2          0
          getdkde3          0
          getdkde4          0
          getdkde5          0
          getdkde6          0
          getdkde7          6
           getden1          0
           getden2          1
           getden3          0
           getden4          0
           getden5          0
           getden6          0
           getden7          0
           getwfk1          0
           getwfk2          1
           getwfk3          2
           getwfk4          2
           getwfk5          2
           getwfk6          2
           getwfk7          2
          get1den1          0
          get1den2          0
          get1den3          0
          get1den4          0
          get1den5          0
          get1den6          4
          get1den7          4
           get1wf1          0
           get1wf2          0
           get1wf3          0
           get1wf4          0
           get1wf5          0
           get1wf6          0
           get1wf7          4
             iscf1          7
             iscf2         -2
             iscf3          7
             iscf4          7
             iscf5          7
             iscf6          7
             iscf7          7
              ixc       -1012
           jdtset        1    2    3    4    5    6    7
              kpt1    -6.25000000E-02 -1.25000000E-01  0.00000000E+00
                      -6.25000000E-02 -2.50000000E-01  0.00000000E+00
                      -1.25000000E-01 -1.87500000E-01  0.00000000E+00
                      -6.25000000E-02 -1.87500000E-01  6.25000000E-02
                      -6.25000000E-02 -3.75000000E-01  0.00000000E+00
                      -1.25000000E-01 -3.12500000E-01  0.00000000E+00
                      -6.25000000E-02 -3.12500000E-01  6.25000000E-02
                      -1.87500000E-01 -2.50000000E-01  0.00000000E+00
                      -1.25000000E-01 -2.50000000E-01  6.25000000E-02
                      -6.25000000E-02 -2.50000000E-01  1.25000000E-01
                      -6.25000000E-02  5.00000000E-01  0.00000000E+00
                      -1.25000000E-01 -4.37500000E-01  0.00000000E+00
                      -6.25000000E-02 -4.37500000E-01  6.25000000E-02
                      -1.87500000E-01 -3.75000000E-01  0.00000000E+00
                      -1.25000000E-01 -3.75000000E-01  6.25000000E-02
                      -6.25000000E-02 -3.75000000E-01  1.25000000E-01
                      -2.50000000E-01 -3.12500000E-01  0.00000000E+00
                      -1.87500000E-01 -3.12500000E-01  6.25000000E-02
                      -1.25000000E-01 -3.12500000E-01  1.25000000E-01
                      -6.25000000E-02 -3.12500000E-01  1.87500000E-01
                      -6.25000000E-02  3.75000000E-01  0.00000000E+00
                      -1.25000000E-01  4.37500000E-01  0.00000000E+00
                      -1.87500000E-01  5.00000000E-01  0.00000000E+00
                      -1.25000000E-01  5.00000000E-01  6.25000000E-02
                      -2.50000000E-01 -4.37500000E-01  0.00000000E+00
                      -1.87500000E-01 -4.37500000E-01  6.25000000E-02
                      -1.25000000E-01 -4.37500000E-01  1.25000000E-01
                      -6.25000000E-02 -4.37500000E-01  1.87500000E-01
                      -3.12500000E-01 -3.75000000E-01  0.00000000E+00
                      -2.50000000E-01 -3.75000000E-01  6.25000000E-02
                      -1.87500000E-01 -3.75000000E-01  1.25000000E-01
                      -1.25000000E-01 -3.75000000E-01  1.87500000E-01
                      -6.25000000E-02 -3.75000000E-01  2.50000000E-01
                      -6.25000000E-02  2.50000000E-01  0.00000000E+00
                      -1.25000000E-01  3.12500000E-01  0.00000000E+00
                      -1.87500000E-01  3.75000000E-01  0.00000000E+00
                      -2.50000000E-01  4.37500000E-01  0.00000000E+00
                      -3.12500000E-01  5.00000000E-01  0.00000000E+00
                      -2.50000000E-01  5.00000000E-01  6.25000000E-02
                      -1.87500000E-01  5.00000000E-01  1.25000000E-01
                      -3.75000000E-01 -4.37500000E-01  0.00000000E+00
                      -3.12500000E-01 -4.37500000E-01  6.25000000E-02
                      -2.50000000E-01 -4.37500000E-01  1.25000000E-01
                      -1.87500000E-01 -4.37500000E-01  1.87500000E-01
                      -1.25000000E-01 -4.37500000E-01  2.50000000E-01
                      -6.25000000E-02 -4.37500000E-01  3.12500000E-01
                      -6.25000000E-02  1.25000000E-01  0.00000000E+00
                      -1.25000000E-01  1.87500000E-01  0.00000000E+00
                      -1.87500000E-01  2.50000000E-01  0.00000000E+00
                      -2.50000000E-01  3.12500000E-01  0.00000000E+00
              kpt2    -6.25000000E-02 -1.25000000E-01  0.00000000E+00
                      -1.25000000E-01 -6.25000000E-02  0.00000000E+00
                      -6.25000000E-02 -6.25000000E-02  6.25000000E-02
                      -6.25000000E-02 -2.50000000E-01  0.00000000E+00
                      -1.25000000E-01 -1.87500000E-01  0.00000000E+00
                      -6.25000000E-02 -1.87500000E-01  6.25000000E-02
                      -1.87500000E-01 -1.25000000E-01  0.00000000E+00
                      -1.25000000E-01 -1.25000000E-01  6.25000000E-02
                      -6.25000000E-02 -1.25000000E-01  1.25000000E-01
                      -2.50000000E-01 -6.25000000E-02  0.00000000E+00
                      -1.87500000E-01 -6.25000000E-02  6.25000000E-02
                      -1.25000000E-01 -6.25000000E-02  1.25000000E-01
                      -6.25000000E-02 -6.25000000E-02  1.87500000E-01
                      -6.25000000E-02 -3.75000000E-01  0.00000000E+00
                      -1.25000000E-01 -3.12500000E-01  0.00000000E+00
                      -6.25000000E-02 -3.12500000E-01  6.25000000E-02
                      -1.87500000E-01 -2.50000000E-01  0.00000000E+00
                      -1.25000000E-01 -2.50000000E-01  6.25000000E-02
                      -6.25000000E-02 -2.50000000E-01  1.25000000E-01
                      -2.50000000E-01 -1.87500000E-01  0.00000000E+00
                      -1.87500000E-01 -1.87500000E-01  6.25000000E-02
                      -1.25000000E-01 -1.87500000E-01  1.25000000E-01
                      -6.25000000E-02 -1.87500000E-01  1.87500000E-01
                      -3.12500000E-01 -1.25000000E-01  0.00000000E+00
                      -2.50000000E-01 -1.25000000E-01  6.25000000E-02
                      -1.87500000E-01 -1.25000000E-01  1.25000000E-01
                      -1.25000000E-01 -1.25000000E-01  1.87500000E-01
                      -6.25000000E-02 -1.25000000E-01  2.50000000E-01
                      -3.75000000E-01 -6.25000000E-02  0.00000000E+00
                      -3.12500000E-01 -6.25000000E-02  6.25000000E-02
                      -2.50000000E-01 -6.25000000E-02  1.25000000E-01
                      -1.87500000E-01 -6.25000000E-02  1.87500000E-01
                      -1.25000000E-01 -6.25000000E-02  2.50000000E-01
                      -6.25000000E-02 -6.25000000E-02  3.12500000E-01
                      -6.25000000E-02  5.00000000E-01  0.00000000E+00
                      -1.25000000E-01 -4.37500000E-01  0.00000000E+00
                      -6.25000000E-02 -4.37500000E-01  6.25000000E-02
                      -1.87500000E-01 -3.75000000E-01  0.00000000E+00
                      -1.25000000E-01 -3.75000000E-01  6.25000000E-02
                      -6.25000000E-02 -3.75000000E-01  1.25000000E-01
                      -2.50000000E-01 -3.12500000E-01  0.00000000E+00
                      -1.87500000E-01 -3.12500000E-01  6.25000000E-02
                      -1.25000000E-01 -3.12500000E-01  1.25000000E-01
                      -6.25000000E-02 -3.12500000E-01  1.87500000E-01
                      -3.12500000E-01 -2.50000000E-01  0.00000000E+00
                      -2.50000000E-01 -2.50000000E-01  6.25000000E-02
                      -1.87500000E-01 -2.50000000E-01  1.25000000E-01
                      -1.25000000E-01 -2.50000000E-01  1.87500000E-01
                      -6.25000000E-02 -2.50000000E-01  2.50000000E-01
                      -3.75000000E-01 -1.87500000E-01  0.00000000E+00
              kpt3    -6.25000000E-02 -1.25000000E-01  0.00000000E+00
                      -1.25000000E-01 -6.25000000E-02  0.00000000E+00
                      -6.25000000E-02 -6.25000000E-02  6.25000000E-02
                      -6.25000000E-02 -2.50000000E-01  0.00000000E+00
                      -1.25000000E-01 -1.87500000E-01  0.00000000E+00
                      -6.25000000E-02 -1.87500000E-01  6.25000000E-02
                      -1.87500000E-01 -1.25000000E-01  0.00000000E+00
                      -1.25000000E-01 -1.25000000E-01  6.25000000E-02
                      -6.25000000E-02 -1.25000000E-01  1.25000000E-01
                      -2.50000000E-01 -6.25000000E-02  0.00000000E+00
                      -1.87500000E-01 -6.25000000E-02  6.25000000E-02
                      -1.25000000E-01 -6.25000000E-02  1.25000000E-01
                      -6.25000000E-02 -6.25000000E-02  1.87500000E-01
                      -6.25000000E-02 -3.75000000E-01  0.00000000E+00
                      -1.25000000E-01 -3.12500000E-01  0.00000000E+00
                      -6.25000000E-02 -3.12500000E-01  6.25000000E-02
                      -1.87500000E-01 -2.50000000E-01  0.00000000E+00
                      -1.25000000E-01 -2.50000000E-01  6.25000000E-02
                      -6.25000000E-02 -2.50000000E-01  1.25000000E-01
                      -2.50000000E-01 -1.87500000E-01  0.00000000E+00
                      -1.87500000E-01 -1.87500000E-01  6.25000000E-02
                      -1.25000000E-01 -1.87500000E-01  1.25000000E-01
                      -6.25000000E-02 -1.87500000E-01  1.87500000E-01
                      -3.12500000E-01 -1.25000000E-01  0.00000000E+00
                      -2.50000000E-01 -1.25000000E-01  6.25000000E-02
                      -1.87500000E-01 -1.25000000E-01  1.25000000E-01
                      -1.25000000E-01 -1.25000000E-01  1.87500000E-01
                      -6.25000000E-02 -1.25000000E-01  2.50000000E-01
                      -3.75000000E-01 -6.25000000E-02  0.00000000E+00
                      -3.12500000E-01 -6.25000000E-02  6.25000000E-02
                      -2.50000000E-01 -6.25000000E-02  1.25000000E-01
                      -1.87500000E-01 -6.25000000E-02  1.87500000E-01
                      -1.25000000E-01 -6.25000000E-02  2.50000000E-01
                      -6.25000000E-02 -6.25000000E-02  3.12500000E-01
                      -6.25000000E-02  5.00000000E-01  0.00000000E+00
                      -1.25000000E-01 -4.37500000E-01  0.00000000E+00
                      -6.25000000E-02 -4.37500000E-01  6.25000000E-02
                      -1.87500000E-01 -3.75000000E-01  0.00000000E+00
                      -1.25000000E-01 -3.75000000E-01  6.25000000E-02
                      -6.25000000E-02 -3.75000000E-01  1.25000000E-01
                      -2.50000000E-01 -3.12500000E-01  0.00000000E+00
                      -1.87500000E-01 -3.12500000E-01  6.25000000E-02
                      -1.25000000E-01 -3.12500000E-01  1.25000000E-01
                      -6.25000000E-02 -3.12500000E-01  1.87500000E-01
                      -3.12500000E-01 -2.50000000E-01  0.00000000E+00
                      -2.50000000E-01 -2.50000000E-01  6.25000000E-02
                      -1.87500000E-01 -2.50000000E-01  1.25000000E-01
                      -1.25000000E-01 -2.50000000E-01  1.87500000E-01
                      -6.25000000E-02 -2.50000000E-01  2.50000000E-01
                      -3.75000000E-01 -1.87500000E-01  0.00000000E+00
              kpt4    -6.25000000E-02 -1.25000000E-01  0.00000000E+00
                      -1.25000000E-01 -6.25000000E-02  0.00000000E+00
                      -6.25000000E-02 -6.25000000E-02  6.25000000E-02
                      -6.25000000E-02 -2.50000000E-01  0.00000000E+00
                      -1.25000000E-01 -1.87500000E-01  0.00000000E+00
                      -6.25000000E-02 -1.87500000E-01  6.25000000E-02
                      -1.87500000E-01 -1.25000000E-01  0.00000000E+00
                      -1.25000000E-01 -1.25000000E-01  6.25000000E-02
                      -6.25000000E-02 -1.25000000E-01  1.25000000E-01
                      -2.50000000E-01 -6.25000000E-02  0.00000000E+00
                      -1.87500000E-01 -6.25000000E-02  6.25000000E-02
                      -1.25000000E-01 -6.25000000E-02  1.25000000E-01
                      -6.25000000E-02 -6.25000000E-02  1.87500000E-01
                      -6.25000000E-02 -3.75000000E-01  0.00000000E+00
                      -1.25000000E-01 -3.12500000E-01  0.00000000E+00
                      -6.25000000E-02 -3.12500000E-01  6.25000000E-02
                      -1.87500000E-01 -2.50000000E-01  0.00000000E+00
                      -1.25000000E-01 -2.50000000E-01  6.25000000E-02
                      -6.25000000E-02 -2.50000000E-01  1.25000000E-01
                      -2.50000000E-01 -1.87500000E-01  0.00000000E+00
                      -1.87500000E-01 -1.87500000E-01  6.25000000E-02
                      -1.25000000E-01 -1.87500000E-01  1.25000000E-01
                      -6.25000000E-02 -1.87500000E-01  1.87500000E-01
                      -3.12500000E-01 -1.25000000E-01  0.00000000E+00
                      -2.50000000E-01 -1.25000000E-01  6.25000000E-02
                      -1.87500000E-01 -1.25000000E-01  1.25000000E-01
                      -1.25000000E-01 -1.25000000E-01  1.87500000E-01
                      -6.25000000E-02 -1.25000000E-01  2.50000000E-01
                      -3.75000000E-01 -6.25000000E-02  0.00000000E+00
                      -3.12500000E-01 -6.25000000E-02  6.25000000E-02
                      -2.50000000E-01 -6.25000000E-02  1.25000000E-01
                      -1.87500000E-01 -6.25000000E-02  1.87500000E-01
                      -1.25000000E-01 -6.25000000E-02  2.50000000E-01
                      -6.25000000E-02 -6.25000000E-02  3.12500000E-01
                      -6.25000000E-02  5.00000000E-01  0.00000000E+00
                      -1.25000000E-01 -4.37500000E-01  0.00000000E+00
                      -6.25000000E-02 -4.37500000E-01  6.25000000E-02
                      -1.87500000E-01 -3.75000000E-01  0.00000000E+00
                      -1.25000000E-01 -3.75000000E-01  6.25000000E-02
                      -6.25000000E-02 -3.75000000E-01  1.25000000E-01
                      -2.50000000E-01 -3.12500000E-01  0.00000000E+00
                      -1.87500000E-01 -3.12500000E-01  6.25000000E-02
                      -1.25000000E-01 -3.12500000E-01  1.25000000E-01
                      -6.25000000E-02 -3.12500000E-01  1.87500000E-01
                      -3.12500000E-01 -2.50000000E-01  0.00000000E+00
                      -2.50000000E-01 -2.50000000E-01  6.25000000E-02
                      -1.87500000E-01 -2.50000000E-01  1.25000000E-01
                      -1.25000000E-01 -2.50000000E-01  1.87500000E-01
                      -6.25000000E-02 -2.50000000E-01  2.50000000E-01
                      -3.75000000E-01 -1.87500000E-01  0.00000000E+00
              kpt5    -6.25000000E-02 -1.25000000E-01  0.00000000E+00
                      -1.25000000E-01 -6.25000000E-02  0.00000000E+00
                      -6.25000000E-02 -6.25000000E-02  6.25000000E-02
                      -6.25000000E-02 -2.50000000E-01  0.00000000E+00
                      -1.25000000E-01 -1.87500000E-01  0.00000000E+00
                      -6.25000000E-02 -1.87500000E-01  6.25000000E-02
                      -1.87500000E-01 -1.25000000E-01  0.00000000E+00
                      -1.25000000E-01 -1.25000000E-01  6.25000000E-02
                      -6.25000000E-02 -1.25000000E-01  1.25000000E-01
                      -2.50000000E-01 -6.25000000E-02  0.00000000E+00
                      -1.87500000E-01 -6.25000000E-02  6.25000000E-02
                      -1.25000000E-01 -6.25000000E-02  1.25000000E-01
                      -6.25000000E-02 -6.25000000E-02  1.87500000E-01
                      -6.25000000E-02 -3.75000000E-01  0.00000000E+00
                      -1.25000000E-01 -3.12500000E-01  0.00000000E+00
                      -6.25000000E-02 -3.12500000E-01  6.25000000E-02
                      -1.87500000E-01 -2.50000000E-01  0.00000000E+00
                      -1.25000000E-01 -2.50000000E-01  6.25000000E-02
                      -6.25000000E-02 -2.50000000E-01  1.25000000E-01
                      -2.50000000E-01 -1.87500000E-01  0.00000000E+00
                      -1.87500000E-01 -1.87500000E-01  6.25000000E-02
                      -1.25000000E-01 -1.87500000E-01  1.25000000E-01
                      -6.25000000E-02 -1.87500000E-01  1.87500000E-01
                      -3.12500000E-01 -1.25000000E-01  0.00000000E+00
                      -2.50000000E-01 -1.25000000E-01  6.25000000E-02
                      -1.87500000E-01 -1.25000000E-01  1.25000000E-01
                      -1.25000000E-01 -1.25000000E-01  1.87500000E-01
                      -6.25000000E-02 -1.25000000E-01  2.50000000E-01
                      -3.75000000E-01 -6.25000000E-02  0.00000000E+00
                      -3.12500000E-01 -6.25000000E-02  6.25000000E-02
                      -2.50000000E-01 -6.25000000E-02  1.25000000E-01
                      -1.87500000E-01 -6.25000000E-02  1.87500000E-01
                      -1.25000000E-01 -6.25000000E-02  2.50000000E-01
                      -6.25000000E-02 -6.25000000E-02  3.12500000E-01
                      -6.25000000E-02  5.00000000E-01  0.00000000E+00
                      -1.25000000E-01 -4.37500000E-01  0.00000000E+00
                      -6.25000000E-02 -4.37500000E-01  6.25000000E-02
                      -1.87500000E-01 -3.75000000E-01  0.00000000E+00
                      -1.25000000E-01 -3.75000000E-01  6.25000000E-02
                      -6.25000000E-02 -3.75000000E-01  1.25000000E-01
                      -2.50000000E-01 -3.12500000E-01  0.00000000E+00
                      -1.87500000E-01 -3.12500000E-01  6.25000000E-02
                      -1.25000000E-01 -3.12500000E-01  1.25000000E-01
                      -6.25000000E-02 -3.12500000E-01  1.87500000E-01
                      -3.12500000E-01 -2.50000000E-01  0.00000000E+00
                      -2.50000000E-01 -2.50000000E-01  6.25000000E-02
                      -1.87500000E-01 -2.50000000E-01  1.25000000E-01
                      -1.25000000E-01 -2.50000000E-01  1.87500000E-01
                      -6.25000000E-02 -2.50000000E-01  2.50000000E-01
                      -3.75000000E-01 -1.87500000E-01  0.00000000E+00
              kpt6    -6.25000000E-02 -1.25000000E-01  0.00000000E+00
                      -1.25000000E-01 -6.25000000E-02  0.00000000E+00
                      -6.25000000E-02 -6.25000000E-02  6.25000000E-02
                      -6.25000000E-02 -2.50000000E-01  0.00000000E+00
                      -1.25000000E-01 -1.87500000E-01  0.00000000E+00
                      -6.25000000E-02 -1.87500000E-01  6.25000000E-02
                      -1.87500000E-01 -1.25000000E-01  0.00000000E+00
                      -1.25000000E-01 -1.25000000E-01  6.25000000E-02
                      -6.25000000E-02 -1.25000000E-01  1.25000000E-01
                      -2.50000000E-01 -6.25000000E-02  0.00000000E+00
                      -1.87500000E-01 -6.25000000E-02  6.25000000E-02
                      -1.25000000E-01 -6.25000000E-02  1.25000000E-01
                      -6.25000000E-02 -6.25000000E-02  1.87500000E-01
                      -6.25000000E-02 -3.75000000E-01  0.00000000E+00
                      -1.25000000E-01 -3.12500000E-01  0.00000000E+00
                      -6.25000000E-02 -3.12500000E-01  6.25000000E-02
                      -1.87500000E-01 -2.50000000E-01  0.00000000E+00
                      -1.25000000E-01 -2.50000000E-01  6.25000000E-02
                      -6.25000000E-02 -2.50000000E-01  1.25000000E-01
                      -2.50000000E-01 -1.87500000E-01  0.00000000E+00
                      -1.87500000E-01 -1.87500000E-01  6.25000000E-02
                      -1.25000000E-01 -1.87500000E-01  1.25000000E-01
                      -6.25000000E-02 -1.87500000E-01  1.87500000E-01
                      -3.12500000E-01 -1.25000000E-01  0.00000000E+00
                      -2.50000000E-01 -1.25000000E-01  6.25000000E-02
                      -1.87500000E-01 -1.25000000E-01  1.25000000E-01
                      -1.25000000E-01 -1.25000000E-01  1.87500000E-01
                      -6.25000000E-02 -1.25000000E-01  2.50000000E-01
                      -3.75000000E-01 -6.25000000E-02  0.00000000E+00
                      -3.12500000E-01 -6.25000000E-02  6.25000000E-02
                      -2.50000000E-01 -6.25000000E-02  1.25000000E-01
                      -1.87500000E-01 -6.25000000E-02  1.87500000E-01
                      -1.25000000E-01 -6.25000000E-02  2.50000000E-01
                      -6.25000000E-02 -6.25000000E-02  3.12500000E-01
                      -6.25000000E-02  5.00000000E-01  0.00000000E+00
                      -1.25000000E-01 -4.37500000E-01  0.00000000E+00
                      -6.25000000E-02 -4.37500000E-01  6.25000000E-02
                      -1.87500000E-01 -3.75000000E-01  0.00000000E+00
                      -1.25000000E-01 -3.75000000E-01  6.25000000E-02
                      -6.25000000E-02 -3.75000000E-01  1.25000000E-01
                      -2.50000000E-01 -3.12500000E-01  0.00000000E+00
                      -1.87500000E-01 -3.12500000E-01  6.25000000E-02
                      -1.25000000E-01 -3.12500000E-01  1.25000000E-01
                      -6.25000000E-02 -3.12500000E-01  1.87500000E-01
                      -3.12500000E-01 -2.50000000E-01  0.00000000E+00
                      -2.50000000E-01 -2.50000000E-01  6.25000000E-02
                      -1.87500000E-01 -2.50000000E-01  1.25000000E-01
                      -1.25000000E-01 -2.50000000E-01  1.87500000E-01
                      -6.25000000E-02 -2.50000000E-01  2.50000000E-01
                      -3.75000000E-01 -1.87500000E-01  0.00000000E+00
              kpt7    -6.25000000E-02 -1.25000000E-01  0.00000000E+00
                      -1.25000000E-01 -6.25000000E-02  0.00000000E+00
                      -6.25000000E-02 -6.25000000E-02  6.25000000E-02
                      -6.25000000E-02 -2.50000000E-01  0.00000000E+00
                      -1.25000000E-01 -1.87500000E-01  0.00000000E+00
                      -6.25000000E-02 -1.87500000E-01  6.25000000E-02
                      -1.87500000E-01 -1.25000000E-01  0.00000000E+00
                      -1.25000000E-01 -1.25000000E-01  6.25000000E-02
                      -6.25000000E-02 -1.25000000E-01  1.25000000E-01
                      -2.50000000E-01 -6.25000000E-02  0.00000000E+00
                      -1.87500000E-01 -6.25000000E-02  6.25000000E-02
                      -1.25000000E-01 -6.25000000E-02  1.25000000E-01
                      -6.25000000E-02 -6.25000000E-02  1.87500000E-01
                      -6.25000000E-02 -3.75000000E-01  0.00000000E+00
                      -1.25000000E-01 -3.12500000E-01  0.00000000E+00
                      -6.25000000E-02 -3.12500000E-01  6.25000000E-02
                      -1.87500000E-01 -2.50000000E-01  0.00000000E+00
                      -1.25000000E-01 -2.50000000E-01  6.25000000E-02
                      -6.25000000E-02 -2.50000000E-01  1.25000000E-01
                      -2.50000000E-01 -1.87500000E-01  0.00000000E+00
                      -1.87500000E-01 -1.87500000E-01  6.25000000E-02
                      -1.25000000E-01 -1.87500000E-01  1.25000000E-01
                      -6.25000000E-02 -1.87500000E-01  1.87500000E-01
                      -3.12500000E-01 -1.25000000E-01  0.00000000E+00
                      -2.50000000E-01 -1.25000000E-01  6.25000000E-02
                      -1.87500000E-01 -1.25000000E-01  1.25000000E-01
                      -1.25000000E-01 -1.25000000E-01  1.87500000E-01
                      -6.25000000E-02 -1.25000000E-01  2.50000000E-01
                      -3.75000000E-01 -6.25000000E-02  0.00000000E+00
                      -3.12500000E-01 -6.25000000E-02  6.25000000E-02
                      -2.50000000E-01 -6.25000000E-02  1.25000000E-01
                      -1.87500000E-01 -6.25000000E-02  1.87500000E-01
                      -1.25000000E-01 -6.25000000E-02  2.50000000E-01
                      -6.25000000E-02 -6.25000000E-02  3.12500000E-01
                      -6.25000000E-02  5.00000000E-01  0.00000000E+00
                      -1.25000000E-01 -4.37500000E-01  0.00000000E+00
                      -6.25000000E-02 -4.37500000E-01  6.25000000E-02
                      -1.87500000E-01 -3.75000000E-01  0.00000000E+00
                      -1.25000000E-01 -3.75000000E-01  6.25000000E-02
                      -6.25000000E-02 -3.75000000E-01  1.25000000E-01
                      -2.50000000E-01 -3.12500000E-01  0.00000000E+00
                      -1.87500000E-01 -3.12500000E-01  6.25000000E-02
                      -1.25000000E-01 -3.12500000E-01  1.25000000E-01
                      -6.25000000E-02 -3.12500000E-01  1.87500000E-01
                      -3.12500000E-01 -2.50000000E-01  0.00000000E+00
                      -2.50000000E-01 -2.50000000E-01  6.25000000E-02
                      -1.87500000E-01 -2.50000000E-01  1.25000000E-01
                      -1.25000000E-01 -2.50000000E-01  1.87500000E-01
                      -6.25000000E-02 -2.50000000E-01  2.50000000E-01
                      -3.75000000E-01 -1.87500000E-01  0.00000000E+00
                       outvar_i_n : Printing only first  50 k-points.
           kptopt1          1
           kptopt2          2
           kptopt3          2
           kptopt4          2
           kptopt5          2
           kptopt6          2
           kptopt7          2
         kptrlatt        8   -8    8     -8    8    8     -8   -8    8
          kptrlen      9.74613782E+01
P           mkmem1          8
P           mkmem2        128
P           mkmem3        128
P           mkmem4        128
P           mkmem5        128
P           mkmem6        128
P           mkmem7        128
P          mkqmem1          8
P          mkqmem2        128
P          mkqmem3        128
P          mkqmem4        128
P          mkqmem5        128
P          mkqmem6        128
P          mkqmem7        128
P          mk1mem1          8
P          mk1mem2        128
P          mk1mem3        128
P          mk1mem4        128
P          mk1mem5        128
P          mk1mem6        128
P          mk1mem7        128
            natom           2
            nband1         14
            nband2         14
            nband3         14
            nband4         14
            nband5         14
            nband6         14
            nband7         14
           ndtset           7
            ngfft          54      54      54
             nkpt1         60
             nkpt2       1024
             nkpt3       1024
             nkpt4       1024
             nkpt5       1024
             nkpt6       1024
             nkpt7       1024
-           npkpt1          8
-           npkpt2          1
-           npkpt3          1
-           npkpt4          1
-           npkpt5          1
-           npkpt6          1
-           npkpt7          1
            nstep         100
             nsym          24
           ntypat           2
              occ1     2.000000  2.000000  2.000000  2.000000  2.000000  2.000000
                       2.000000  2.000000  2.000000  2.000000  2.000000  2.000000
                       2.000000  2.000000
              occ3     2.000000  2.000000  2.000000  2.000000  2.000000  2.000000
                       2.000000  2.000000  2.000000  2.000000  2.000000  2.000000
                       2.000000  2.000000
              occ4     2.000000  2.000000  2.000000  2.000000  2.000000  2.000000
                       2.000000  2.000000  2.000000  2.000000  2.000000  2.000000
                       2.000000  2.000000
              occ5     2.000000  2.000000  2.000000  2.000000  2.000000  2.000000
                       2.000000  2.000000  2.000000  2.000000  2.000000  2.000000
                       2.000000  2.000000
              occ6     2.000000  2.000000  2.000000  2.000000  2.000000  2.000000
                       2.000000  2.000000  2.000000  2.000000  2.000000  2.000000
                       2.000000  2.000000
              occ7     2.000000  2.000000  2.000000  2.000000  2.000000  2.000000
                       2.000000  2.000000  2.000000  2.000000  2.000000  2.000000
                       2.000000  2.000000
        optdriver1          0
        optdriver2          0
        optdriver3          1
        optdriver4          1
        optdriver5          1
        optdriver6          1
        optdriver7          5
          prepanl1          0
          prepanl2          0
          prepanl3          0
          prepanl4          1
          prepanl5          1
          prepanl6          1
          prepanl7          0
          rfatpol1          1       1
          rfatpol2          1       1
          rfatpol3          1       1
          rfatpol4          1       2
          rfatpol5          1       1
          rfatpol6          1       1
          rfatpol7          1       1
            rfdir1          0       0       0
            rfdir2          0       0       0
            rfdir3          1       1       1
            rfdir4          1       1       1
            rfdir5          1       1       1
            rfdir6          1       1       1
            rfdir7          0       0       0
           rfelfd1          0
           rfelfd2          0
           rfelfd3          2
           rfelfd4          3
           rfelfd5          0
           rfelfd6          0
           rfelfd7          0
           rfphon1          0
           rfphon2          0
           rfphon3          0
           rfphon4          1
           rfphon5          0
           rfphon6          0
           rfphon7          0
           rfstrs1          0
           rfstrs2          0
           rfstrs3          0
           rfstrs4          3
           rfstrs5          0
           rfstrs6          0
           rfstrs7          0
         rf2_dkdk1          0
         rf2_dkdk2          0
         rf2_dkdk3          0
         rf2_dkdk4          0
         rf2_dkdk5          1
         rf2_dkdk6          0
         rf2_dkdk7          0
         rf2_dkde1          0
         rf2_dkde2          0
         rf2_dkde3          0
         rf2_dkde4          0
         rf2_dkde5          0
         rf2_dkde6          1
         rf2_dkde7          0
    rf2_pert1_dir1          0       0       0
    rf2_pert1_dir2          0       0       0
    rf2_pert1_dir3          0       0       0
    rf2_pert1_dir4          0       0       0
    rf2_pert1_dir5          1       1       1
    rf2_pert1_dir6          1       1       1
    rf2_pert1_dir7          0       0       0
    rf2_pert2_dir1          0       0       0
    rf2_pert2_dir2          0       0       0
    rf2_pert2_dir3          0       0       0
    rf2_pert2_dir4          0       0       0
    rf2_pert2_dir5          1       1       1
    rf2_pert2_dir6          1       1       1
    rf2_pert2_dir7          0       0       0
            rprim      0.0000000000E+00  5.0000000000E-01  5.0000000000E-01
                       5.0000000000E-01  0.0000000000E+00  5.0000000000E-01
                       5.0000000000E-01  5.0000000000E-01  0.0000000000E+00
           shiftk      5.00000000E-01  5.00000000E-01  5.00000000E-01
          spgroup         216
           symrel      1  0  0   0  1  0   0  0  1       0 -1  1   0 -1  0   1 -1  0
                      -1  0  0  -1  0  1  -1  1  0       0  1 -1   1  0 -1   0  0 -1
                      -1  0  0  -1  1  0  -1  0  1       0 -1  1   1 -1  0   0 -1  0
                       1  0  0   0  0  1   0  1  0       0  1 -1   0  0 -1   1  0 -1
                      -1  0  1  -1  1  0  -1  0  0       0 -1  0   1 -1  0   0 -1  1
                       1  0 -1   0  0 -1   0  1 -1       0  1  0   0  0  1   1  0  0
                       1  0 -1   0  1 -1   0  0 -1       0 -1  0   0 -1  1   1 -1  0
                      -1  0  1  -1  0  0  -1  1  0       0  1  0   1  0  0   0  0  1
                       0  0 -1   0  1 -1   1  0 -1       1 -1  0   0 -1  1   0 -1  0
                       0  0  1   1  0  0   0  1  0      -1  1  0  -1  0  0  -1  0  1
                       0  0  1   0  1  0   1  0  0       1 -1  0   0 -1  0   0 -1  1
                       0  0 -1   1  0 -1   0  1 -1      -1  1  0  -1  0  1  -1  0  0
           tolvrs1     0.00000000E+00
           tolvrs2     0.00000000E+00
           tolvrs3     0.00000000E+00
           tolvrs4     1.00000000E-12
           tolvrs5     0.00000000E+00
           tolvrs6     0.00000000E+00
           tolvrs7     0.00000000E+00
           tolwfr1     1.00000000E-22
           tolwfr2     1.00000000E-22
           tolwfr3     1.00000000E-22
           tolwfr4     0.00000000E+00
           tolwfr5     1.00000000E-22
           tolwfr6     1.00000000E-22
           tolwfr7     0.00000000E+00
            typat      1  2
          usepead1          1
          usepead2          1
          usepead3          1
          usepead4          1
          usepead5          1
          usepead6          1
          usepead7          0
           useylm1          0
           useylm2          0
           useylm3          0
           useylm4          0
           useylm5          1
           useylm6          1
           useylm7          0
              wtk1       0.01172    0.01172    0.01172    0.02344    0.01172    0.01172
                         0.02344    0.01172    0.02344    0.02344    0.01172    0.01172
                         0.02344    0.01172    0.02344    0.02344    0.01172    0.02344
                         0.02344    0.02344    0.01172    0.01172    0.01172    0.02344
                         0.01172    0.02344    0.02344    0.02344    0.01172    0.02344
                         0.02344    0.02344    0.02344    0.01172    0.01172    0.01172
                         0.01172    0.01172    0.02344    0.02344    0.01172    0.02344
                         0.02344    0.02344    0.02344    0.02344    0.01172    0.01172
                         0.01172    0.01172
              wtk2       0.00098    0.00098    0.00098    0.00098    0.00098    0.00098
                         0.00098    0.00098    0.00098    0.00098    0.00098    0.00098
                         0.00098    0.00098    0.00098    0.00098    0.00098    0.00098
                         0.00098    0.00098    0.00098    0.00098    0.00098    0.00098
                         0.00098    0.00098    0.00098    0.00098    0.00098    0.00098
                         0.00098    0.00098    0.00098    0.00098    0.00098    0.00098
                         0.00098    0.00098    0.00098    0.00098    0.00098    0.00098
                         0.00098    0.00098    0.00098    0.00098    0.00098    0.00098
                         0.00098    0.00098
              wtk3       0.00098    0.00098    0.00098    0.00098    0.00098    0.00098
                         0.00098    0.00098    0.00098    0.00098    0.00098    0.00098
                         0.00098    0.00098    0.00098    0.00098    0.00098    0.00098
                         0.00098    0.00098    0.00098    0.00098    0.00098    0.00098
                         0.00098    0.00098    0.00098    0.00098    0.00098    0.00098
                         0.00098    0.00098    0.00098    0.00098    0.00098    0.00098
                         0.00098    0.00098    0.00098    0.00098    0.00098    0.00098
                         0.00098    0.00098    0.00098    0.00098    0.00098    0.00098
                         0.00098    0.00098
              wtk4       0.00098    0.00098    0.00098    0.00098    0.00098    0.00098
                         0.00098    0.00098    0.00098    0.00098    0.00098    0.00098
                         0.00098    0.00098    0.00098    0.00098    0.00098    0.00098
                         0.00098    0.00098    0.00098    0.00098    0.00098    0.00098
                         0.00098    0.00098    0.00098    0.00098    0.00098    0.00098
                         0.00098    0.00098    0.00098    0.00098    0.00098    0.00098
                         0.00098    0.00098    0.00098    0.00098    0.00098    0.00098
                         0.00098    0.00098    0.00098    0.00098    0.00098    0.00098
                         0.00098    0.00098
              wtk5       0.00098    0.00098    0.00098    0.00098    0.00098    0.00098
                         0.00098    0.00098    0.00098    0.00098    0.00098    0.00098
                         0.00098    0.00098    0.00098    0.00098    0.00098    0.00098
                         0.00098    0.00098    0.00098    0.00098    0.00098    0.00098
                         0.00098    0.00098    0.00098    0.00098    0.00098    0.00098
                         0.00098    0.00098    0.00098    0.00098    0.00098    0.00098
                         0.00098    0.00098    0.00098    0.00098    0.00098    0.00098
                         0.00098    0.00098    0.00098    0.00098    0.00098    0.00098
                         0.00098    0.00098
              wtk6       0.00098    0.00098    0.00098    0.00098    0.00098    0.00098
                         0.00098    0.00098    0.00098    0.00098    0.00098    0.00098
                         0.00098    0.00098    0.00098    0.00098    0.00098    0.00098
                         0.00098    0.00098    0.00098    0.00098    0.00098    0.00098
                         0.00098    0.00098    0.00098    0.00098    0.00098    0.00098
                         0.00098    0.00098    0.00098    0.00098    0.00098    0.00098
                         0.00098    0.00098    0.00098    0.00098    0.00098    0.00098
                         0.00098    0.00098    0.00098    0.00098    0.00098    0.00098
                         0.00098    0.00098
              wtk7       0.00098    0.00098    0.00098    0.00098    0.00098    0.00098
                         0.00098    0.00098    0.00098    0.00098    0.00098    0.00098
                         0.00098    0.00098    0.00098    0.00098    0.00098    0.00098
                         0.00098    0.00098    0.00098    0.00098    0.00098    0.00098
                         0.00098    0.00098    0.00098    0.00098    0.00098    0.00098
                         0.00098    0.00098    0.00098    0.00098    0.00098    0.00098
                         0.00098    0.00098    0.00098    0.00098    0.00098    0.00098
                         0.00098    0.00098    0.00098    0.00098    0.00098    0.00098
                         0.00098    0.00098
                       outvars : Printing only first  50 k-points.
           xangst      0.0000000000E+00  0.0000000000E+00  0.0000000000E+00
                       1.6116981276E+00  1.6116981276E+00  1.6116981276E+00
            xcart      0.0000000000E+00  0.0000000000E+00  0.0000000000E+00
                       3.0456680700E+00  3.0456680700E+00  3.0456680700E+00
             xred      0.0000000000E+00  0.0000000000E+00  0.0000000000E+00
                       2.5000000000E-01  2.5000000000E-01  2.5000000000E-01
            znucl       49.00000   51.00000

================================================================================

 chkinp: Checking input parameters for consistency, jdtset=   1.

 chkinp: Checking input parameters for consistency, jdtset=   2.

 chkinp: Checking input parameters for consistency, jdtset=   3.

 chkinp: Checking input parameters for consistency, jdtset=   4.

 chkinp: Checking input parameters for consistency, jdtset=   5.

 chkinp: Checking input parameters for consistency, jdtset=   6.

 chkinp: Checking input parameters for consistency, jdtset=   7.

================================================================================
== DATASET  1 ==================================================================
-   mpi_nproc: 8, omp_nthreads: 8 (-1 if OMP is not activated)


--- !DatasetInfo
iteration_state: {dtset: 1, }
dimensions: {natom: 2, nkpt: 60, mband: 14, nsppol: 1, nspinor: 1, nspden: 1, mpw: 6824, }
cutoff_energies: {ecut:  42.0, pawecutdg:  -1.0, }
electrons: {nelect:   2.80000000E+01, charge:   0.00000000E+00, occopt:   1.00000000E+00, tsmear:   1.00000000E-02, }
meta: {optdriver: 0, ionmov: 0, optcell: 0, iscf: 7, paral_kgb: 0, }
...

 Real(R)+Recip(G) space primitive vectors, cartesian coordinates (Bohr,Bohr^-1):
 R(1)=  0.0000000  6.0913361  6.0913361  G(1)= -0.0820838  0.0820838  0.0820838
 R(2)=  6.0913361  0.0000000  6.0913361  G(2)=  0.0820838 -0.0820838  0.0820838
 R(3)=  6.0913361  6.0913361  0.0000000  G(3)=  0.0820838  0.0820838 -0.0820838
 Unit cell volume ucvol=  4.5203045E+02 bohr^3
 Angles (23,13,12)=  6.00000000E+01  6.00000000E+01  6.00000000E+01 degrees

 getcut: wavevector=  0.0000  0.0000  0.0000  ngfft=  54  54  54
         ecut(hartree)=     46.305   => boxcut(ratio)=   2.04709

--- Pseudopotential description ------------------------------------------------
- pspini: atom type   1  psp file is /Users/lassi/Desktop/abinit_InSb/simulations/pseudos/In.psp8
- pspatm: opening atomic psp file    /Users/lassi/Desktop/abinit_InSb/simulations/pseudos/In.psp8
- In    ONCVPSP-3.3.0  r_core=   2.21158   2.37566   1.87143
- 49.00000  13.00000    171103                znucl, zion, pspdat
    8   -1012    2    4       600   0.00000   pspcod,pspxc,lmax,lloc,mmax,r2well
    5.99000000000000    5.00000000000000    0.00000000000000   rchrg,fchrg,qchrg
     nproj     2     2     2
     extension_switch     1
  pspatm : epsatm=   25.24256501
         --- l  ekb(1:nproj) -->
             0    8.133624    1.226031
             1    5.976255    1.015318
             2   -4.092403   -1.250253
 pspatm: atomic psp has been read  and splines computed

- pspini: atom type   2  psp file is /Users/lassi/Desktop/abinit_InSb/simulations/pseudos/Sb.psp8
- pspatm: opening atomic psp file    /Users/lassi/Desktop/abinit_InSb/simulations/pseudos/Sb.psp8
- Sb    ONCVPSP-3.3.0  r_core=   1.90855   2.12485   1.81962
- 51.00000  15.00000    171103                znucl, zion, pspdat
    8   -1012    2    4       600   0.00000   pspcod,pspxc,lmax,lloc,mmax,r2well
    5.99000000000000    5.00000000000000    0.00000000000000   rchrg,fchrg,qchrg
     nproj     2     2     2
     extension_switch     1
  pspatm : epsatm=   26.56042488
         --- l  ekb(1:nproj) -->
             0    7.790707    1.044356
             1    5.463367    0.704398
             2   -4.791489   -1.453703
 pspatm: atomic psp has been read  and splines computed

   1.45048372E+03                                ecore*ucvol(ha*bohr**3)
--------------------------------------------------------------------------------

_setup2: Arith. and geom. avg. npw (full set) are    6802.824    6802.819

================================================================================

--- !BeginCycle
iteration_state: {dtset: 1, }
solver: {iscf: 7, nstep: 100, nline: 4, wfoptalg: 0, }
tolerances: {tolwfr: 1.00E-22, }
...

     iter   Etot(hartree)      deltaE(h)  residm     vres2
 ETOT  1  -153.50310762745    -1.535E+02 6.278E-01 5.944E+03
 ETOT  2  -156.33525716048    -2.832E+00 1.376E-01 7.251E+03
 ETOT  3  -156.87312066008    -5.379E-01 2.536E-02 1.472E+03
 ETOT  4  -156.94860585871    -7.549E-02 2.167E-02 5.949E+02
 ETOT  5  -156.98060465274    -3.200E-02 1.148E-03 1.813E+02
 ETOT  6  -156.99359288256    -1.299E-02 6.097E-04 1.595E+01
 ETOT  7  -156.99479303171    -1.200E-03 4.863E-04 5.582E-01
 ETOT  8  -156.99483833949    -4.531E-05 6.346E-05 6.441E-03
 ETOT  9  -156.99483941708    -1.078E-06 6.921E-05 1.957E-03
 ETOT 10  -156.99483981905    -4.020E-07 9.250E-06 1.593E-05
 ETOT 11  -156.99483990828    -8.923E-08 1.157E-05 2.115E-07
 ETOT 12  -156.99483994382    -3.554E-08 1.537E-06 4.493E-07
 ETOT 13  -156.99483995858    -1.476E-08 2.024E-06 2.033E-09
 ETOT 14  -156.99483996472    -6.137E-09 2.668E-07 2.652E-09
 ETOT 15  -156.99483996728    -2.564E-09 3.567E-07 9.160E-11
 ETOT 16  -156.99483996835    -1.070E-09 4.661E-08 1.912E-11
 ETOT 17  -156.99483996880    -4.497E-10 6.295E-08 1.679E-11
 ETOT 18  -156.99483996899    -1.861E-10 8.168E-09 8.288E-13
 ETOT 19  -156.99483996907    -7.893E-11 1.110E-08 1.764E-12
 ETOT 20  -156.99483996911    -3.669E-11 1.432E-09 3.222E-13
 ETOT 21  -156.99483996912    -1.145E-11 1.955E-09 1.374E-13
 ETOT 22  -156.99483996912    -5.059E-12 2.513E-10 2.903E-15
 ETOT 23  -156.99483996913    -6.850E-12 3.441E-10 1.859E-14
 ETOT 24  -156.99483996913     2.672E-12 4.409E-11 6.973E-15
 ETOT 25  -156.99483996913    -7.674E-13 6.051E-11 5.727E-15
 ETOT 26  -156.99483996913    -9.663E-13 7.731E-12 1.745E-15
 ETOT 27  -156.99483996912     4.121E-12 1.060E-11 4.665E-15
 ETOT 28  -156.99483996913    -5.542E-12 1.311E-12 5.034E-15
 ETOT 29  -156.99483996913     1.506E-12 1.155E-12 6.671E-15
 ETOT 30  -156.99483996913    -1.705E-13 1.894E-13 4.266E-15
 ETOT 31  -156.99483996913     4.832E-13 2.874E-13 1.602E-15
 ETOT 32  -156.99483996913     7.674E-13 3.751E-14 1.565E-15
 ETOT 33  -156.99483996913    -1.506E-12 5.216E-14 5.703E-15
 ETOT 34  -156.99483996913     0.000E+00 6.661E-15 7.012E-15
 ETOT 35  -156.99483996913     1.450E-12 9.203E-15 5.112E-16
 ETOT 36  -156.99483996913     1.336E-12 1.171E-15 3.277E-16
 ETOT 37  -156.99483996913    -9.379E-13 1.617E-15 2.547E-16
 ETOT 38  -156.99483996913     3.411E-13 2.056E-16 1.418E-16
 ETOT 39  -156.99483996913    -1.421E-12 2.838E-16 7.474E-17
 ETOT 40  -156.99483996912     2.785E-12 3.607E-17 2.347E-17
 ETOT 41  -156.99483996913    -8.527E-13 4.981E-17 1.201E-17
 ETOT 42  -156.99483996912     5.116E-13 6.330E-18 2.102E-17
 ETOT 43  -156.99483996912     5.116E-13 8.740E-18 2.223E-18
 ETOT 44  -156.99483996912     5.969E-13 1.111E-18 2.519E-19
 ETOT 45  -156.99483996912    -1.990E-13 1.533E-18 2.307E-20
 ETOT 46  -156.99483996912     2.558E-13 1.950E-19 2.823E-21
 ETOT 47  -156.99483996912    -2.842E-13 2.691E-19 3.621E-21
 ETOT 48  -156.99483996912    -2.842E-14 3.423E-20 1.897E-22
 ETOT 49  -156.99483996912    -6.821E-13 4.722E-20 9.604E-21
 ETOT 50  -156.99483996912     2.274E-13 6.007E-21 8.001E-20
 ETOT 51  -156.99483996912     5.684E-14 8.284E-21 7.815E-20
 ETOT 52  -156.99483996912    -5.684E-14 1.055E-21 7.492E-20
 ETOT 53  -156.99483996912     0.000E+00 1.454E-21 8.249E-20
 ETOT 54  -156.99483996912     8.527E-14 1.852E-22 8.130E-20
 ETOT 55  -156.99483996912    -2.842E-14 2.551E-22 7.937E-20
 ETOT 56  -156.99483996912     0.000E+00 9.455E-23 6.694E-20

 At SCF step   56   max residual=  9.45E-23 < tolwfr=  1.00E-22 =>converged.

 Cartesian components of stress tensor (hartree/bohr^3)
  sigma(1 1)=  8.02349901E-09  sigma(3 2)=  0.00000000E+00
  sigma(2 2)=  8.02349900E-09  sigma(3 1)=  0.00000000E+00
  sigma(3 3)=  8.02349900E-09  sigma(2 1)=  0.00000000E+00


--- !ResultsGS
iteration_state: {dtset: 1, }
comment   : Summary of ground state results
lattice_vectors:
- [  0.0000000,   6.0913361,   6.0913361, ]
- [  6.0913361,   0.0000000,   6.0913361, ]
- [  6.0913361,   6.0913361,   0.0000000, ]
lattice_lengths: [   8.61445,    8.61445,    8.61445, ]
lattice_angles: [ 60.000,  60.000,  60.000, ] # degrees, (23, 13, 12)
lattice_volume:   4.5203045E+02
convergence: {deltae:  0.000E+00, res2:  6.694E-20, residm:  9.455E-23, diffor: null, }
etotal    :  -1.56994840E+02
entropy   :   0.00000000E+00
fermie    :   1.61267306E-01
cartesian_stress_tensor: # hartree/bohr^3
- [  8.02349901E-09,   0.00000000E+00,   0.00000000E+00, ]
- [  0.00000000E+00,   8.02349900E-09,   0.00000000E+00, ]
- [  0.00000000E+00,   0.00000000E+00,   8.02349900E-09, ]
pressure_GPa:  -2.3606E-04
xred      :
- [  0.0000E+00,   0.0000E+00,   0.0000E+00, In]
- [  2.5000E-01,   2.5000E-01,   2.5000E-01, Sb]
cartesian_forces: # hartree/bohr
- [  4.31684657E-32,  -1.29505397E-31,   2.15842328E-31, ]
- [ -4.31684657E-32,   1.29505397E-31,  -2.15842328E-31, ]
force_length_stats: {min:   2.55388087E-31, max:   2.55388087E-31, mean:   2.55388087E-31, }
...

 Integrated electronic density in atomic spheres:
 ------------------------------------------------
 Atom  Sphere_radius  Integrated_density
    1        2.00000          9.94210425
    2        2.00000         11.23928039
================================================================================

 ----iterations are completed or convergence reached----

 Mean square residual over all n,k,spin=   37.536E-24; max=  94.548E-24
 reduced coordinates (array xred) for    2 atoms
       0.000000000000      0.000000000000      0.000000000000
       0.250000000000      0.250000000000      0.250000000000
 rms dE/dt=  1.8717E-30; max dE/dt=  4.2073E-30; dE/dt below (all hartree)
    1      -0.000000000000      0.000000000000      0.000000000000
    2       0.000000000000      0.000000000000      0.000000000000

 cartesian coordinates (angstrom) at end:
    1      0.00000000000000     0.00000000000000     0.00000000000000
    2      1.61169812757429     1.61169812757429     1.61169812757429

 cartesian forces (hartree/bohr) at end:
    1      0.00000000000000    -0.00000000000000     0.00000000000000
    2     -0.00000000000000     0.00000000000000    -0.00000000000000
 frms,max,avg= 1.4744838E-31 2.1584233E-31   0.000E+00  0.000E+00  0.000E+00 h/b

 cartesian forces (eV/Angstrom) at end:
    1      0.00000000000000    -0.00000000000000     0.00000000000000
    2     -0.00000000000000     0.00000000000000    -0.00000000000000
 frms,max,avg= 7.5821000E-30 1.1099058E-29   0.000E+00  0.000E+00  0.000E+00 e/A
 length scales= 12.182672280000 12.182672280000 12.182672280000 bohr
              =  6.446792510297  6.446792510297  6.446792510297 angstroms
 prteigrs : about to open file NLO_3o_DS1_EIG
 Fermi (or HOMO) energy (hartree) =   0.16127   Average Vxc (hartree)=  -0.34919
 Eigenvalues (hartree) for nkpt=  60  k points:
 kpt#   1, nband= 14, wtk=  0.01172, kpt= -0.0625 -0.1250  0.0000 (reduced coord)
  -0.88637   -0.88636   -0.88636   -0.88570   -0.88570   -0.37335   -0.37287   -0.37285
  -0.36974   -0.36967   -0.23200    0.09799    0.15008    0.15205
 prteigrs : prtvol=0 or 1, do not print more k-points.


--- !EnergyTerms
iteration_state     : {dtset: 1, }
comment             : Components of total free energy in Hartree
kinetic             :  9.46599269617562E+01
hartree             :  4.38897939144727E+01
xc                  : -4.21258001184790E+01
Ewald energy        : -8.69756091605121E+01
psp_core            :  3.20881858411430E+00
local_psp           : -1.35613994289726E+02
non_local_psp       : -3.40379758607499E+01
total_energy        : -1.56994839969124E+02
total_energy_eV     : -4.27204685443911E+03
band_energy         : -1.26220666340988E+01
...


 Cartesian components of stress tensor (hartree/bohr^3)
  sigma(1 1)=  8.02349901E-09  sigma(3 2)=  0.00000000E+00
  sigma(2 2)=  8.02349900E-09  sigma(3 1)=  0.00000000E+00
  sigma(3 3)=  8.02349900E-09  sigma(2 1)=  0.00000000E+00

-Cartesian components of stress tensor (GPa)         [Pressure= -2.3606E-04 GPa]
- sigma(1 1)=  2.36059451E-04  sigma(3 2)=  0.00000000E+00
- sigma(2 2)=  2.36059451E-04  sigma(3 1)=  0.00000000E+00
- sigma(3 3)=  2.36059451E-04  sigma(2 1)=  0.00000000E+00

================================================================================
== DATASET  2 ==================================================================
-   mpi_nproc: 8, omp_nthreads: 8 (-1 if OMP is not activated)


--- !DatasetInfo
iteration_state: {dtset: 2, }
dimensions: {natom: 2, nkpt: 1024, mband: 14, nsppol: 1, nspinor: 1, nspden: 1, mpw: 6824, }
cutoff_energies: {ecut:  42.0, pawecutdg:  -1.0, }
electrons: {nelect:   2.80000000E+01, charge:   0.00000000E+00, occopt:   1.00000000E+00, tsmear:   1.00000000E-02, }
meta: {optdriver: 0, ionmov: 0, optcell: 0, iscf: -2, paral_kgb: 0, }
...

 mkfilename : getwfk/=0, take file _WFK from output of DATASET   1.

 mkfilename : getden/=0, take file _DEN from output of DATASET   1.

 Real(R)+Recip(G) space primitive vectors, cartesian coordinates (Bohr,Bohr^-1):
 R(1)=  0.0000000  6.0913361  6.0913361  G(1)= -0.0820838  0.0820838  0.0820838
 R(2)=  6.0913361  0.0000000  6.0913361  G(2)=  0.0820838 -0.0820838  0.0820838
 R(3)=  6.0913361  6.0913361  0.0000000  G(3)=  0.0820838  0.0820838 -0.0820838
 Unit cell volume ucvol=  4.5203045E+02 bohr^3
 Angles (23,13,12)=  6.00000000E+01  6.00000000E+01  6.00000000E+01 degrees

 getcut: wavevector=  0.0000  0.0000  0.0000  ngfft=  54  54  54
         ecut(hartree)=     46.305   => boxcut(ratio)=   2.04709
--------------------------------------------------------------------------------

-inwffil : will read wavefunctions from disk file NLO_3o_DS1_WFK

================================================================================
 prteigrs : about to open file NLO_3o_DS2_EIG
 Non-SCF case, kpt    1 ( -0.06250 -0.12500  0.00000), residuals and eigenvalues=
  3.52E-23  3.40E-23  3.38E-23  2.33E-23  2.31E-23  5.49E-23  3.70E-23  3.49E-23
  4.47E-23  4.53E-23  1.96E-23  3.68E-23  6.12E-23  3.32E-23
 -8.8637E-01 -8.8636E-01 -8.8636E-01 -8.8570E-01 -8.8570E-01 -3.7335E-01
 -3.7287E-01 -3.7285E-01 -3.6974E-01 -3.6967E-01 -2.3200E-01  9.7991E-02
  1.5008E-01  1.5205E-01
 prteigrs : prtvol=0 or 1, do not print more k-points.



--- !ResultsGS
iteration_state: {dtset: 2, }
comment   : Summary of ground state results
lattice_vectors:
- [  0.0000000,   6.0913361,   6.0913361, ]
- [  6.0913361,   0.0000000,   6.0913361, ]
- [  6.0913361,   6.0913361,   0.0000000, ]
lattice_lengths: [   8.61445,    8.61445,    8.61445, ]
lattice_angles: [ 60.000,  60.000,  60.000, ] # degrees, (23, 13, 12)
lattice_volume:   4.5203045E+02
convergence: {deltae:  0.000E+00, res2:  0.000E+00, residm:  9.975E-23, diffor:  0.000E+00, }
etotal    :  -1.56994840E+02
entropy   :   0.00000000E+00
fermie    :   1.61267306E-01
cartesian_stress_tensor: null
pressure_GPa: null
xred      :
- [  0.0000E+00,   0.0000E+00,   0.0000E+00, In]
- [  2.5000E-01,   2.5000E-01,   2.5000E-01, Sb]
cartesian_forces: null
force_length_stats: {min: null, max: null, mean: null, }
...

 Integrated electronic density in atomic spheres:
 ------------------------------------------------
 Atom  Sphere_radius  Integrated_density
    1        2.00000          9.94210425
    2        2.00000         11.23928039
================================================================================

 ----iterations are completed or convergence reached----

 Mean square residual over all n,k,spin=   18.188E-24; max=  99.750E-24
 reduced coordinates (array xred) for    2 atoms
       0.000000000000      0.000000000000      0.000000000000
       0.250000000000      0.250000000000      0.250000000000

 cartesian coordinates (angstrom) at end:
    1      0.00000000000000     0.00000000000000     0.00000000000000
    2      1.61169812757429     1.61169812757429     1.61169812757429
 length scales= 12.182672280000 12.182672280000 12.182672280000 bohr
              =  6.446792510297  6.446792510297  6.446792510297 angstroms
 prteigrs : about to open file NLO_3o_DS2_EIG
 Eigenvalues (hartree) for nkpt=1024  k points:
 kpt#   1, nband= 14, wtk=  0.00098, kpt= -0.0625 -0.1250  0.0000 (reduced coord)
  -0.88637   -0.88636   -0.88636   -0.88570   -0.88570   -0.37335   -0.37287   -0.37285
  -0.36974   -0.36967   -0.23200    0.09799    0.15008    0.15205
 prteigrs : prtvol=0 or 1, do not print more k-points.


================================================================================
== DATASET  3 ==================================================================
-   mpi_nproc: 8, omp_nthreads: 8 (-1 if OMP is not activated)


--- !DatasetInfo
iteration_state: {dtset: 3, }
dimensions: {natom: 2, nkpt: 1024, mband: 14, nsppol: 1, nspinor: 1, nspden: 1, mpw: 6824, }
cutoff_energies: {ecut:  42.0, pawecutdg:  -1.0, }
electrons: {nelect:   2.80000000E+01, charge:   0.00000000E+00, occopt:   1.00000000E+00, tsmear:   1.00000000E-02, }
meta: {optdriver: 1, rfelfd: 2, }
...

 mkfilename : getwfk/=0, take file _WFK from output of DATASET   2.

 Real(R)+Recip(G) space primitive vectors, cartesian coordinates (Bohr,Bohr^-1):
 R(1)=  0.0000000  6.0913361  6.0913361  G(1)= -0.0820838  0.0820838  0.0820838
 R(2)=  6.0913361  0.0000000  6.0913361  G(2)=  0.0820838 -0.0820838  0.0820838
 R(3)=  6.0913361  6.0913361  0.0000000  G(3)=  0.0820838  0.0820838 -0.0820838
 Unit cell volume ucvol=  4.5203045E+02 bohr^3
 Angles (23,13,12)=  6.00000000E+01  6.00000000E+01  6.00000000E+01 degrees

 getcut: wavevector=  0.0000  0.0000  0.0000  ngfft=  54  54  54
         ecut(hartree)=     46.305   => boxcut(ratio)=   2.04709
--------------------------------------------------------------------------------

-inwffil : will read wavefunctions from disk file NLO_3o_DS2_WFK

 ==>  initialize data related to q vector <== 

 The list of irreducible perturbations for this q vector is:
    1)    idir= 1    ipert=   3
    2)    idir= 2    ipert=   3
    3)    idir= 3    ipert=   3

================================================================================

--------------------------------------------------------------------------------
 Perturbation wavevector (in red.coord.)   0.000000  0.000000  0.000000
 Perturbation : derivative vs k along direction   1

 dfpt_looppert : COMMENT -
  In a d/dk calculation, iscf is set to -3 automatically.
 The set of symmetries contains only one element for this perturbation.
 symkpt : not enough symmetry to change the number of k points.

--------------------------------------------------------------------------------

-inwffil : will read wavefunctions from disk file NLO_3o_DS2_WFK
--------------------------------------------------------------------------------

 Initialisation of the first-order wave-functions :
  ireadwf=   0

--- !BeginCycle
iteration_state: {dtset: 3, }
solver: {iscf: 7, nstep: 100, nline: 4, wfoptalg: 0, }
tolerances: {tolwfr: 1.00E-22, }
...

     iter   2DEtotal(Ha)        deltaE(Ha) residm    vres2
-ETOT  1  -49.076858592753     -4.908E+01 2.281E+01 0.000E+00
 ETOT  2  -49.252756033515     -1.759E-01 1.663E+00 0.000E+00
 ETOT  3  -49.268690403771     -1.593E-02 3.941E-01 0.000E+00
 ETOT  4  -49.272096855155     -3.406E-03 1.550E-01 0.000E+00
 ETOT  5  -49.273172887271     -1.076E-03 4.491E-02 0.000E+00
 ETOT  6  -49.273578574467     -4.057E-04 2.608E-02 0.000E+00
 ETOT  7  -49.273747782053     -1.692E-04 7.635E-03 0.000E+00
 ETOT  8  -49.273820509272     -7.273E-05 4.977E-03 0.000E+00
 ETOT  9  -49.273852211490     -3.170E-05 1.463E-03 0.000E+00
 ETOT 10  -49.273866095296     -1.388E-05 9.701E-04 0.000E+00
 ETOT 11  -49.273872190309     -6.095E-06 2.844E-04 0.000E+00
 ETOT 12  -49.273874868810     -2.679E-06 1.893E-04 0.000E+00
 ETOT 13  -49.273876046719     -1.178E-06 5.540E-05 0.000E+00
 ETOT 14  -49.273876564901     -5.182E-07 3.693E-05 0.000E+00
 ETOT 15  -49.273876792930     -2.280E-07 1.079E-05 0.000E+00
 ETOT 16  -49.273876893290     -1.004E-07 7.204E-06 0.000E+00
 ETOT 17  -49.273876937469     -4.418E-08 2.103E-06 0.000E+00
 ETOT 18  -49.273876956919     -1.945E-08 1.405E-06 0.000E+00
 ETOT 19  -49.273876965483     -8.564E-09 4.095E-07 0.000E+00
 ETOT 20  -49.273876969253     -3.771E-09 2.738E-07 0.000E+00
 ETOT 21  -49.273876970914     -1.660E-09 7.976E-08 0.000E+00
 ETOT 22  -49.273876971645     -7.312E-10 5.338E-08 0.000E+00
 ETOT 23  -49.273876971967     -3.221E-10 1.553E-08 0.000E+00
 ETOT 24  -49.273876972109     -1.419E-10 1.040E-08 0.000E+00
 ETOT 25  -49.273876972172     -6.249E-11 3.024E-09 0.000E+00
 ETOT 26  -49.273876972199     -2.751E-11 2.027E-09 0.000E+00
 ETOT 27  -49.273876972211     -1.210E-11 5.888E-10 0.000E+00
 ETOT 28  -49.273876972217     -5.400E-12 3.951E-10 0.000E+00
 ETOT 29  -49.273876972219     -2.316E-12 1.146E-10 0.000E+00
 ETOT 30  -49.273876972220     -1.030E-12 7.700E-11 0.000E+00
 ETOT 31  -49.273876972220     -4.761E-13 2.232E-11 0.000E+00
 ETOT 32  -49.273876972221     -2.203E-13 1.500E-11 0.000E+00
 ETOT 33  -49.273876972221     -2.842E-14 4.346E-12 0.000E+00
 ETOT 34  -49.273876972221     -7.105E-14 2.924E-12 0.000E+00
 ETOT 35  -49.273876972221      0.000E+00 8.461E-13 0.000E+00
 ETOT 36  -49.273876972221     -2.842E-14 5.698E-13 0.000E+00
 ETOT 37  -49.273876972221     -1.421E-14 1.648E-13 0.000E+00
 ETOT 38  -49.273876972221      5.684E-14 1.111E-13 0.000E+00
 ETOT 39  -49.273876972221     -4.974E-14 3.208E-14 0.000E+00
 ETOT 40  -49.273876972221      2.132E-14 2.164E-14 0.000E+00
 ETOT 41  -49.273876972221      0.000E+00 6.247E-15 0.000E+00
 ETOT 42  -49.273876972221      7.105E-15 4.218E-15 0.000E+00
 ETOT 43  -49.273876972221     -2.132E-14 1.216E-15 0.000E+00
 ETOT 44  -49.273876972221      1.421E-14 8.221E-16 0.000E+00
 ETOT 45  -49.273876972221     -2.132E-14 2.369E-16 0.000E+00
 ETOT 46  -49.273876972221      1.421E-14 1.602E-16 0.000E+00
 ETOT 47  -49.273876972221     -2.842E-14 4.613E-17 0.000E+00
 ETOT 48  -49.273876972221      4.974E-14 3.123E-17 0.000E+00
 ETOT 49  -49.273876972221     -2.132E-14 8.984E-18 0.000E+00
 ETOT 50  -49.273876972221     -2.132E-14 6.088E-18 0.000E+00
 ETOT 51  -49.273876972221     -2.132E-14 1.750E-18 0.000E+00
 ETOT 52  -49.273876972221      4.263E-14 1.187E-18 0.000E+00
 ETOT 53  -49.273876972221     -7.105E-15 3.408E-19 0.000E+00
 ETOT 54  -49.273876972221      0.000E+00 2.313E-19 0.000E+00
 ETOT 55  -49.273876972221      1.421E-14 6.637E-20 0.000E+00
 ETOT 56  -49.273876972221     -7.816E-14 4.509E-20 0.000E+00
 ETOT 57  -49.273876972221      8.527E-14 1.293E-20 0.000E+00
 ETOT 58  -49.273876972221     -7.105E-15 8.791E-21 0.000E+00
 ETOT 59  -49.273876972221     -4.263E-14 2.517E-21 0.000E+00
 ETOT 60  -49.273876972221      1.421E-14 1.713E-21 0.000E+00
 ETOT 61  -49.273876972221      2.132E-14 4.901E-22 0.000E+00
 ETOT 62  -49.273876972221      0.000E+00 3.341E-22 0.000E+00
 ETOT 63  -49.273876972221      7.105E-15 1.000E-22 0.000E+00

 At SCF step   63   max residual=  1.00E-22 < tolwfr=  1.00E-22 =>converged.
================================================================================

 ----iterations are completed or convergence reached----

 Mean square residual over all n,k,spin=   58.144E-24; max=  99.995E-24
 dfpt_looppert : ek2=    4.4687277336E+01
          f-sum rule ratio=    1.0006619210E+00 (note : ecutsm/=0)
 prteigrs : about to open file NLO_3t_1WF1_EIG
 Expectation of eigenvalue derivatives (hartree) for nkpt=1024  k points:
  (in case of degenerate eigenvalues, averaged derivative)
 kpt#   1, nband= 14, wtk=  0.00098, kpt= -0.0625 -0.1250  0.0000 (reduced coord)
   0.00009   -0.00007   -0.00006    0.00005   -0.00006    0.00237   -0.00142   -0.00105
   0.00064   -0.00043   -0.01437    0.01102    0.11201    0.16714
 prteigrs : prtvol=0 or 1, do not print more k-points.


 Eight components of 2nd-order total energy (hartree) are
 1,2,3: 0th-order hamiltonian combined with 1st-order wavefunctions
     kin0=   8.55481082E+01 eigvalue=   2.94781267E+00  local=  -6.10791958E+01
 4,5,6: 1st-order hamiltonian combined with 1st and 0th-order wfs
     kin1=  -4.47168568E+01  Hartree=   0.00000000E+00     xc=   0.00000000E+00
 7,8,9: eventually, occupation + non-local contributions
    edocc=   0.00000000E+00     enl0=   2.18571519E+01   enl1=  -5.38308972E+01
 1-9 gives the relaxation energy (to be shifted if some occ is /=2.0)
   erelax=  -4.92738770E+01
  No Ewald or frozen-wf contrib.: the relaxation energy is the total one
 2DEtotal=   -0.4927387697E+02 Ha. Also 2DEtotal=   -0.134081038056E+04 eV
    (  non-var. 2DEtotal :   -4.9273876972E+01 Ha)

--------------------------------------------------------------------------------
 Perturbation wavevector (in red.coord.)   0.000000  0.000000  0.000000
 Perturbation : derivative vs k along direction   2
 The set of symmetries contains only one element for this perturbation.
 symkpt : not enough symmetry to change the number of k points.

--------------------------------------------------------------------------------

-inwffil : will read wavefunctions from disk file NLO_3o_DS2_WFK
--------------------------------------------------------------------------------

 Initialisation of the first-order wave-functions :
  ireadwf=   0

--- !BeginCycle
iteration_state: {dtset: 3, }
solver: {iscf: 7, nstep: 100, nline: 4, wfoptalg: 0, }
tolerances: {tolwfr: 1.00E-22, }
...

     iter   2DEtotal(Ha)        deltaE(Ha) residm    vres2
-ETOT  1  -49.075262075088     -4.908E+01 2.281E+01 0.000E+00
 ETOT  2  -49.252437008448     -1.772E-01 1.671E+00 0.000E+00
 ETOT  3  -49.268668996349     -1.623E-02 4.036E-01 0.000E+00
 ETOT  4  -49.272103101038     -3.434E-03 1.315E-01 0.000E+00
 ETOT  5  -49.273185996678     -1.083E-03 3.523E-02 0.000E+00
 ETOT  6  -49.273589840591     -4.038E-04 2.223E-02 0.000E+00
 ETOT  7  -49.273755146003     -1.653E-04 6.036E-03 0.000E+00
 ETOT  8  -49.273824765650     -6.962E-05 4.244E-03 0.000E+00
 ETOT  9  -49.273854505852     -2.974E-05 1.152E-03 0.000E+00
 ETOT 10  -49.273867278285     -1.277E-05 8.231E-04 0.000E+00
 ETOT 11  -49.273872782880     -5.505E-06 2.226E-04 0.000E+00
 ETOT 12  -49.273875159368     -2.376E-06 1.596E-04 0.000E+00
 ETOT 13  -49.273876187067     -1.028E-06 4.306E-05 0.000E+00
 ETOT 14  -49.273876631912     -4.448E-07 3.092E-05 0.000E+00
 ETOT 15  -49.273876824676     -1.928E-07 8.326E-06 0.000E+00
 ETOT 16  -49.273876908260     -8.358E-08 5.985E-06 0.000E+00
 ETOT 17  -49.273876944533     -3.627E-08 1.609E-06 0.000E+00
 ETOT 18  -49.273876960282     -1.575E-08 1.158E-06 0.000E+00
 ETOT 19  -49.273876967124     -6.842E-09 3.107E-07 0.000E+00
 ETOT 20  -49.273876970098     -2.974E-09 2.237E-07 0.000E+00
 ETOT 21  -49.273876971391     -1.293E-09 5.999E-08 0.000E+00
 ETOT 22  -49.273876971953     -5.625E-10 4.323E-08 0.000E+00
 ETOT 23  -49.273876972198     -2.448E-10 1.158E-08 0.000E+00
 ETOT 24  -49.273876972305     -1.066E-10 8.350E-09 0.000E+00
 ETOT 25  -49.273876972351     -4.637E-11 2.234E-09 0.000E+00
 ETOT 26  -49.273876972371     -2.019E-11 1.612E-09 0.000E+00
 ETOT 27  -49.273876972380     -8.818E-12 4.309E-10 0.000E+00
 ETOT 28  -49.273876972384     -3.865E-12 3.113E-10 0.000E+00
 ETOT 29  -49.273876972386     -1.648E-12 8.313E-11 0.000E+00
 ETOT 30  -49.273876972386     -7.319E-13 6.011E-11 0.000E+00
 ETOT 31  -49.273876972387     -3.482E-13 1.603E-11 0.000E+00
 ETOT 32  -49.273876972387     -1.350E-13 1.160E-11 0.000E+00
 ETOT 33  -49.273876972387     -2.132E-14 3.093E-12 0.000E+00
 ETOT 34  -49.273876972387     -5.684E-14 2.240E-12 0.000E+00
 ETOT 35  -49.273876972387      0.000E+00 5.965E-13 0.000E+00
 ETOT 36  -49.273876972387     -7.105E-15 4.324E-13 0.000E+00
 ETOT 37  -49.273876972387     -7.105E-15 1.151E-13 0.000E+00
 ETOT 38  -49.273876972387     -7.105E-15 8.348E-14 0.000E+00
[...]
--------------------------------------------------------------------------------

-inwffil : will read wavefunctions from disk file NLO_3o_DS2_WFK
 symkchk : k-point set has full space-group symmetry.

 ==>  initialize data related to q vector <== 

 The list of irreducible perturbations for this q vector is:
    1)    idir= 1    ipert=   1
    2)    idir= 1    ipert=   2
    3)    idir= 1    ipert=   4
    4)    idir= 1    ipert=   5
    5)    idir= 2    ipert=   5
    6)    idir= 3    ipert=   5
    7)    idir= 1    ipert=   6
    8)    idir= 2    ipert=   6
    9)    idir= 3    ipert=   6

================================================================================

 The perturbation idir=   2  ipert=   1 is
 symmetric of a previously calculated perturbation.
 So, its SCF calculation is not needed.


 The perturbation idir=   3  ipert=   1 is
 symmetric of a previously calculated perturbation.
 So, its SCF calculation is not needed.


 The perturbation idir=   2  ipert=   2 is
 symmetric of a previously calculated perturbation.
 So, its SCF calculation is not needed.


 The perturbation idir=   3  ipert=   2 is
 symmetric of a previously calculated perturbation.
 So, its SCF calculation is not needed.


--------------------------------------------------------------------------------
 Perturbation wavevector (in red.coord.)   0.000000  0.000000  0.000000
 Perturbation : displacement of atom   1   along direction   1
 symkpt : not enough symmetry to change the number of k points.

--------------------------------------------------------------------------------

-inwffil : will read wavefunctions from disk file NLO_3o_DS2_WFK
--------------------------------------------------------------------------------

 Initialisation of the first-order wave-functions :
  ireadwf=   0

--- !BeginCycle
iteration_state: {dtset: 4, }
solver: {iscf: 7, nstep: 100, nline: 4, wfoptalg: 0, }
tolerances: {tolvrs: 1.00E-12, }
...

     iter   2DEtotal(Ha)        deltaE(Ha) residm    vres2
-ETOT  1   15.358425694381     -1.914E+04 3.290E+01 6.592E+02
 ETOT  2   5.3911818433132     -9.967E+00 2.012E-01 7.344E+01
 ETOT  3   5.3393561630453     -5.183E-02 2.378E-02 1.218E+01
 ETOT  4   5.3375310241479     -1.825E-03 1.471E-02 1.358E+00
 ETOT  5   5.3368868045598     -6.442E-04 2.353E-03 6.622E-02
 ETOT  6   5.3368347286248     -5.208E-05 1.350E-03 2.073E-03
 ETOT  7   5.3368214535601     -1.328E-05 3.057E-04 1.148E-04
 ETOT  8   5.3368169059120     -4.548E-06 1.784E-04 3.763E-05
 ETOT  9   5.3368152058335     -1.700E-06 3.600E-05 2.533E-06
 ETOT 10   5.3368145633665     -6.425E-07 2.569E-05 1.344E-06
 ETOT 11   5.3368143153036     -2.481E-07 5.110E-06 1.054E-07
 ETOT 12   5.3368142188790     -9.642E-08 3.980E-06 2.236E-08
 ETOT 13   5.3368141812114     -3.767E-08 8.134E-07 1.143E-08
 ETOT 14   5.3368141664412     -1.477E-08 6.247E-07 2.179E-09
 ETOT 15   5.3368141606604     -5.781E-09 1.345E-07 1.142E-09
 ETOT 16   5.3368141583576     -2.303E-09 9.836E-08 1.143E-09
 ETOT 17   5.3368141573826     -9.750E-10 2.230E-08 7.205E-11
 ETOT 18   5.3368141570261     -3.565E-10 1.550E-08 7.324E-11
 ETOT 19   5.3368141568806     -1.455E-10 3.707E-09 1.844E-11
 ETOT 20   5.3368141568296     -5.093E-11 2.443E-09 5.156E-13

 At SCF step   20       vres2   =  5.16E-13 < tolvrs=  1.00E-12 =>converged.
-open ddk wf file :NLO_3o_DS3_1WF7
-open ddk wf file :NLO_3o_DS3_1WF8
-open ddk wf file :NLO_3o_DS3_1WF9
================================================================================

 ----iterations are completed or convergence reached----

 Mean square residual over all n,k,spin=   73.739E-14; max=  24.426E-10

 Thirteen components of 2nd-order total energy (hartree) are
 1,2,3: 0th-order hamiltonian combined with 1st-order wavefunctions
     kin0=   2.63635687E+04 eigvalue=   1.48567632E+03  local=  -1.50546643E+04
 4,5,6: 1st-order hamiltonian combined with 1st and 0th-order wfs
 loc psp =  -5.96197326E+03  Hartree=   1.72489035E+03     xc=  -2.78088704E+02
 note that "loc psp" includes a xc core correction that could be resolved
 7,8,9: eventually, occupation + non-local contributions
    edocc=   0.00000000E+00     enl0=   4.91039597E+03   enl1=  -3.23415833E+04
 1-9 gives the relaxation energy (to be shifted if some occ is /=2.0)
   erelax=  -1.91517783E+04
 10,11,12 Non-relaxation  contributions : frozen-wavefunctions and Ewald
 fr.local=   2.68199083E+03 fr.nonlo=   1.61762099E+04  Ewald=   1.34094404E+02
 13,14 Frozen wf xc core corrections (1) and (2)
 frxc 1  =  -5.70929412E+02  frxc 2 =   7.35749305E+02
 Resulting in :
 2DEtotal=    0.5336814157E+01 Ha. Also 2DEtotal=    0.145222098611E+03 eV
    (2DErelax=   -1.9151778262E+04 Ha. 2DEnonrelax=    1.9157115076E+04 Ha)
    (  non-var. 2DEtotal :    5.3368153466E+00 Ha)


--------------------------------------------------------------------------------
 Perturbation wavevector (in red.coord.)   0.000000  0.000000  0.000000
 Perturbation : displacement of atom   2   along direction   1
 symkpt : not enough symmetry to change the number of k points.

--------------------------------------------------------------------------------

-inwffil : will read wavefunctions from disk file NLO_3o_DS2_WFK
--------------------------------------------------------------------------------

 Initialisation of the first-order wave-functions :
  ireadwf=   0

--- !BeginCycle
iteration_state: {dtset: 4, }
solver: {iscf: 7, nstep: 100, nline: 4, wfoptalg: 0, }
tolerances: {tolvrs: 1.00E-12, }
...

     iter   2DEtotal(Ha)        deltaE(Ha) residm    vres2
-ETOT  1   13.334355894673     -2.933E+04 4.587E+01 5.131E+02
 ETOT  2   5.4274849104120     -7.907E+00 4.944E-01 3.779E+02
 ETOT  3   5.3432455245936     -8.424E-02 1.663E-01 2.237E+01
 ETOT  4   5.3382834582887     -4.962E-03 6.429E-02 1.391E+00
 ETOT  5   5.3371372019762     -1.146E-03 2.143E-02 7.275E-02
 ETOT  6   5.3369389563165     -1.982E-04 9.746E-03 1.523E-02
 ETOT  7   5.3368666907197     -7.227E-05 3.439E-03 8.119E-04
 ETOT  8   5.3368393874050     -2.730E-05 1.647E-03 6.442E-05
 ETOT  9   5.3368284535106     -1.093E-05 5.908E-04 1.661E-05
 ETOT 10   5.3368239994459     -4.454E-06 2.869E-04 8.884E-06
 ETOT 11   5.3368221776698     -1.822E-06 1.028E-04 3.525E-07
 ETOT 12   5.3368214307563     -7.469E-07 5.027E-05 3.787E-07
 ETOT 13   5.3368211235654     -3.072E-07 1.797E-05 2.486E-07
 ETOT 14   5.3368209970365     -1.265E-07 8.817E-06 1.904E-07
 ETOT 15   5.3368209449479     -5.209E-08 3.154E-06 6.721E-07
 ETOT 16   5.3368209234402     -2.151E-08 1.547E-06 5.318E-07
 ETOT 17   5.3368209145126     -8.928E-09 5.508E-07 2.906E-07
 ETOT 18   5.3368209108019     -3.711E-09 2.709E-07 1.391E-07
 ETOT 19   5.3368209092303     -1.572E-09 9.598E-08 4.091E-08
 ETOT 20   5.3368209086773     -5.530E-10 4.751E-08 3.271E-08
 ETOT 21   5.3368209082771     -3.965E-10 1.641E-08 2.534E-08
 ETOT 22   5.3368209082334     -4.366E-11 8.367E-09 1.451E-08
 ETOT 23   5.3368209081898     -4.729E-11 2.919E-09 1.299E-09
 ETOT 24   5.3368209081971      1.091E-11 1.464E-09 5.976E-10
 ETOT 25   5.3368209081680     -3.274E-11 5.157E-10 8.702E-11
 ETOT 26   5.3368209081025     -6.548E-11 2.573E-10 2.172E-11
 ETOT 27   5.3368209081534      5.093E-11 9.092E-11 1.196E-11
 ETOT 28   5.3368209081825      2.910E-11 4.506E-11 5.277E-12
 ETOT 29   5.3368209081461     -3.274E-11 1.593E-11 4.184E-13

 At SCF step   29       vres2   =  4.18E-13 < tolvrs=  1.00E-12 =>converged.
-open ddk wf file :NLO_3o_DS3_1WF7
-open ddk wf file :NLO_3o_DS3_1WF8
-open ddk wf file :NLO_3o_DS3_1WF9
================================================================================

 ----iterations are completed or convergence reached----

 Mean square residual over all n,k,spin=   25.407E-16; max=  15.931E-12

 Thirteen components of 2nd-order total energy (hartree) are
 1,2,3: 0th-order hamiltonian combined with 1st-order wavefunctions
     kin0=   3.95792549E+04 eigvalue=   4.48433068E+03  local=  -2.40728314E+04
 4,5,6: 1st-order hamiltonian combined with 1st and 0th-order wfs
 loc psp =  -9.06122582E+03  Hartree=   2.57084223E+03     xc=  -4.03369273E+02
 note that "loc psp" includes a xc core correction that could be resolved
 7,8,9: eventually, occupation + non-local contributions
    edocc=   0.00000000E+00     enl0=   7.18320212E+03   enl1=  -4.96216326E+04
 1-9 gives the relaxation energy (to be shifted if some occ is /=2.0)
   erelax=  -2.93414292E+04
 10,11,12 Non-relaxation  contributions : frozen-wavefunctions and Ewald
 fr.local=   4.21082310E+03 fr.nonlo=   2.48067765E+04  Ewald=   1.34094404E+02
 13,14 Frozen wf xc core corrections (1) and (2)
 frxc 1  =  -7.79640632E+02  frxc 2 =   9.74712651E+02
 Resulting in :
 2DEtotal=    0.5336820908E+01 Ha. Also 2DEtotal=    0.145222282324E+03 eV
    (2DErelax=   -2.9341429192E+04 Ha. 2DEnonrelax=    2.9346766013E+04 Ha)
    (  non-var. 2DEtotal :    5.3368213353E+00 Ha)


--------------------------------------------------------------------------------
 Perturbation wavevector (in red.coord.)   0.000000  0.000000  0.000000
 Perturbation : homogeneous electric field along direction   1
 symkpt : not enough symmetry to change the number of k points.

--------------------------------------------------------------------------------

-inwffil : will read wavefunctions from disk file NLO_3o_DS2_WFK
--------------------------------------------------------------------------------

 Initialisation of the first-order wave-functions :
  ireadwf=   0
- dfpt_looppert: read the DDK wavefunctions from file: NLO_3o_DS3_1WF7

--- !BeginCycle
iteration_state: {dtset: 4, }
solver: {iscf: 7, nstep: 100, nline: 4, wfoptalg: 0, }
tolerances: {tolvrs: 1.00E-12, }
...

     iter   2DEtotal(Ha)        deltaE(Ha) residm    vres2
-ETOT  1  -512.41303098412     -5.124E+02 3.888E+03 1.267E+05
 ETOT  2  -554.94469506883     -4.253E+01 3.756E+02 1.291E+03
 ETOT  3  -557.37267073456     -2.428E+00 1.360E+02 4.061E+02
 ETOT  4  -558.00579751458     -6.331E-01 1.803E+01 1.512E+01
 ETOT  5  -558.19416187265     -1.884E-01 1.444E+01 5.105E-01
 ETOT  6  -558.26539899645     -7.124E-02 2.256E+00 1.703E-01
 ETOT  7  -558.29379706477     -2.840E-02 2.401E+00 1.028E-01
 ETOT  8  -558.30529951188     -1.150E-02 3.716E-01 4.104E-02
 ETOT  9  -558.30995977981     -4.660E-03 4.037E-01 2.452E-03
 ETOT 10  -558.31185752273     -1.898E-03 6.129E-02 1.392E-03
 ETOT 11  -558.31263089624     -7.734E-04 6.842E-02 3.415E-04
 ETOT 12  -558.31294698463     -3.161E-04 1.020E-02 1.425E-05
 ETOT 13  -558.31307608243     -1.291E-04 1.164E-02 3.579E-04
 ETOT 14  -558.31312897449     -5.289E-05 1.704E-03 2.098E-04
 ETOT 15  -558.31315057165     -2.160E-05 1.975E-03 1.204E-04
 ETOT 16  -558.31315943700     -8.865E-06 2.843E-04 1.146E-05
 ETOT 17  -558.31316305381     -3.617E-06 3.360E-04 8.944E-06
 ETOT 18  -558.31316453705     -1.483E-06 4.768E-05 4.253E-06
 ETOT 19  -558.31316514319     -6.061E-07 5.677E-05 6.432E-07
 ETOT 20  -558.31316539137     -2.482E-07 8.006E-06 9.079E-08
 ETOT 21  -558.31316549294     -1.016E-07 9.630E-06 5.941E-08
 ETOT 22  -558.31316553456     -4.162E-08 1.346E-06 5.499E-09
 ETOT 23  -558.31316555164     -1.708E-08 1.633E-06 5.261E-08
 ETOT 24  -558.31316555861     -6.966E-09 2.272E-07 9.204E-08
 ETOT 25  -558.31316556150     -2.894E-09 2.765E-07 6.691E-08
 ETOT 26  -558.31316556265     -1.152E-09 3.829E-08 5.624E-08
 ETOT 27  -558.31316556315     -4.998E-10 4.676E-08 3.972E-08
 ETOT 28  -558.31316556336     -2.037E-10 6.440E-09 2.944E-08
 ETOT 29  -558.31316556353     -1.730E-10 7.936E-09 3.204E-08
 ETOT 30  -558.31316556345      7.503E-11 1.086E-09 2.977E-08
 ETOT 31  -558.31316556352     -6.094E-11 1.336E-09 2.407E-08
 ETOT 32  -558.31316556344      7.572E-11 1.799E-10 7.922E-09
 ETOT 33  -558.31316556353     -8.708E-11 2.211E-10 3.869E-09
 ETOT 34  -558.31316556352      6.139E-12 3.113E-11 6.327E-09
 ETOT 35  -558.31316556357     -4.707E-11 3.702E-11 5.393E-09
 ETOT 36  -558.31316556355      1.569E-11 4.971E-12 3.150E-09
 ETOT 37  -558.31316556353      2.183E-11 5.260E-12 7.766E-10
 ETOT 38  -558.31316556356     -2.774E-11 7.851E-13 1.024E-10
 ETOT 39  -558.31316556355      8.640E-12 1.055E-12 1.262E-11
 ETOT 40  -558.31316556342      1.266E-10 1.324E-13 1.900E-12
-open ddk wf file :NLO_3o_DS3_1WF7
-open ddk wf file :NLO_3o_DS3_1WF8
-open ddk wf file :NLO_3o_DS3_1WF9

 scprqt:  WARNING -
  nstep=  100 was not enough SCF cycles to converge;
  potential residual=  1.900E-12 exceeds tolvrs=  1.000E-12

================================================================================

 ----iterations are completed or convergence reached----

 Mean square residual over all n,k,spin=   28.964E-18; max=  13.244E-14

 Seven components of 2nd-order total energy (hartree) are
 1,2,3: 0th-order hamiltonian combined with 1st-order wavefunctions
     kin0=   6.44415824E+03 eigvalue=  -1.60815212E+03  local=  -7.63327985E+03
 4,5,6: 1st-order hamiltonian combined with 1st and 0th-order wfs
    dotwf=  -1.11662633E+03  Hartree=   4.33854331E+01     xc=  -2.69160057E+01
 7,8,9: eventually, occupation + non-local contributions
    edocc=   0.00000000E+00     enl0=   3.33911747E+03   enl1=   0.00000000E+00
 1-9 gives the relaxation energy (to be shifted if some occ is /=2.0)
   erelax=  -5.58313166E+02
  No Ewald or frozen-wf contrib.: the relaxation energy is the total one
 2DEtotal=   -0.5583131656E+03 Ha. Also 2DEtotal=   -0.151924738622E+05 eV
    (  non-var. 2DEtotal :   -5.5831316497E+02 Ha)

--------------------------------------------------------------------------------
 Perturbation wavevector (in red.coord.)   0.000000  0.000000  0.000000
 Perturbation : homogeneous electric field along direction   2
 symkpt : not enough symmetry to change the number of k points.

--------------------------------------------------------------------------------

-inwffil : will read wavefunctions from disk file NLO_3o_DS2_WFK
--------------------------------------------------------------------------------

 Initialisation of the first-order wave-functions :
  ireadwf=   0
- dfpt_looppert: read the DDK wavefunctions from file: NLO_3o_DS3_1WF8

--- !BeginCycle
iteration_state: {dtset: 4, }
solver: {iscf: 7, nstep: 100, nline: 4, wfoptalg: 0, }
tolerances: {tolvrs: 1.00E-12, }
...

     iter   2DEtotal(Ha)        deltaE(Ha) residm    vres2
-ETOT  1  -511.33458670275     -5.113E+02 3.301E+03 1.272E+05
 ETOT  2  -554.80300356643     -4.347E+01 3.315E+02 1.270E+03
 ETOT  3  -557.34796168211     -2.545E+00 1.212E+02 4.027E+02
 ETOT  4  -558.00478068141     -6.568E-01 1.569E+01 1.523E+01
 ETOT  5  -558.19525745132     -1.905E-01 1.266E+01 4.684E-01
 ETOT  6  -558.26641907872     -7.116E-02 1.911E+00 1.798E-01
 ETOT  7  -558.29445919742     -2.804E-02 2.082E+00 1.136E-01
 ETOT  8  -558.30567009367     -1.121E-02 3.118E-01 3.914E-02
 ETOT  9  -558.31015090689     -4.481E-03 3.467E-01 2.071E-03
 ETOT 10  -558.31195187659     -1.801E-03 5.082E-02 1.113E-03
 ETOT 11  -558.31267584825     -7.240E-04 5.818E-02 3.373E-04
 ETOT 12  -558.31296794213     -2.921E-04 8.366E-03 7.927E-06
 ETOT 13  -558.31308566098     -1.177E-04 9.795E-03 2.490E-04
 ETOT 14  -558.31313325248     -4.759E-05 1.384E-03 2.523E-04
 ETOT 15  -558.31315240851     -1.916E-05 1.648E-03 4.220E-04
 ETOT 16  -558.31316014370     -7.735E-06 2.303E-04 5.429E-04
 ETOT 17  -558.31316326147     -3.118E-06 2.767E-04 5.060E-04
 ETOT 18  -558.31316460372     -1.342E-06 3.796E-05 1.878E-04
 ETOT 19  -558.31316515088     -5.472E-07 4.578E-05 5.974E-05
 ETOT 20  -558.31316536730     -2.164E-07 6.197E-06 9.826E-06
 ETOT 21  -558.31316544772     -8.042E-08 7.913E-06 2.809E-05
 ETOT 22  -558.31316548480     -3.708E-08 1.014E-06 7.429E-06
 ETOT 23  -558.31316549986     -1.506E-08 1.281E-06 3.984E-08
 ETOT 24  -558.31316550526     -5.398E-09 1.663E-07 2.484E-08
 ETOT 25  -558.31316550738     -2.116E-09 2.123E-07 1.172E-09
 ETOT 26  -558.31316550832     -9.434E-10 2.746E-08 5.432E-11
 ETOT 27  -558.31316550864     -3.188E-10 3.531E-08 6.597E-10
 ETOT 28  -558.31316550886     -2.251E-10 4.537E-09 2.428E-13

 At SCF step   28       vres2   =  2.43E-13 < tolvrs=  1.00E-12 =>converged.
-open ddk wf file :NLO_3o_DS3_1WF7
-open ddk wf file :NLO_3o_DS3_1WF8
-open ddk wf file :NLO_3o_DS3_1WF9
================================================================================

 ----iterations are completed or convergence reached----

 Mean square residual over all n,k,spin=   93.107E-14; max=  45.370E-10

 Seven components of 2nd-order total energy (hartree) are
 1,2,3: 0th-order hamiltonian combined with 1st-order wavefunctions
     kin0=   6.44415240E+03 eigvalue=  -1.60815058E+03  local=  -7.63327237E+03
 4,5,6: 1st-order hamiltonian combined with 1st and 0th-order wfs
    dotwf=  -1.11662612E+03  Hartree=   4.33854309E+01     xc=  -2.69160036E+01
 7,8,9: eventually, occupation + non-local contributions
    edocc=   0.00000000E+00     enl0=   3.33911408E+03   enl1=   0.00000000E+00
 1-9 gives the relaxation energy (to be shifted if some occ is /=2.0)
   erelax=  -5.58313166E+02
  No Ewald or frozen-wf contrib.: the relaxation energy is the total one
 2DEtotal=   -0.5583131655E+03 Ha. Also 2DEtotal=   -0.151924738608E+05 eV
    (  non-var. 2DEtotal :   -5.5831306199E+02 Ha)

--------------------------------------------------------------------------------
 Perturbation wavevector (in red.coord.)   0.000000  0.000000  0.000000
 Perturbation : homogeneous electric field along direction   3
 symkpt : not enough symmetry to change the number of k points.

--------------------------------------------------------------------------------

-inwffil : will read wavefunctions from disk file NLO_3o_DS2_WFK
--------------------------------------------------------------------------------

 Initialisation of the first-order wave-functions :
  ireadwf=   0
- dfpt_looppert: read the DDK wavefunctions from file: NLO_3o_DS3_1WF9

--- !BeginCycle
iteration_state: {dtset: 4, }
solver: {iscf: 7, nstep: 100, nline: 4, wfoptalg: 0, }
tolerances: {tolvrs: 1.00E-12, }
...

     iter   2DEtotal(Ha)        deltaE(Ha) residm    vres2
-ETOT  1  -512.41223629592     -5.124E+02 3.888E+03 1.267E+05
 ETOT  2  -554.94447040432     -4.253E+01 3.756E+02 1.290E+03
 ETOT  3  -557.37259689167     -2.428E+00 1.360E+02 4.061E+02
 ETOT  4  -558.00577227267     -6.332E-01 1.803E+01 1.512E+01
 ETOT  5  -558.19415214279     -1.884E-01 1.443E+01 5.105E-01
 ETOT  6  -558.26539511690     -7.124E-02 2.256E+00 1.704E-01
 ETOT  7  -558.29379542119     -2.840E-02 2.401E+00 1.027E-01
 ETOT  8  -558.30529877277     -1.150E-02 3.715E-01 4.105E-02
 ETOT  9  -558.30995940845     -4.661E-03 4.036E-01 2.454E-03
 ETOT 10  -558.31185730417     -1.898E-03 6.129E-02 1.392E-03
 ETOT 11  -558.31263074094     -7.734E-04 6.841E-02 3.415E-04
 ETOT 12  -558.31294685576     -3.161E-04 1.020E-02 1.431E-05
 ETOT 13  -558.31307596462     -1.291E-04 1.164E-02 3.580E-04
 ETOT 14  -558.31312886132     -5.290E-05 1.704E-03 2.099E-04
 ETOT 15  -558.31315046049     -2.160E-05 1.975E-03 1.204E-04
 ETOT 16  -558.31315932658     -8.866E-06 2.843E-04 1.144E-05
 ETOT 17  -558.31316294380     -3.617E-06 3.359E-04 8.929E-06
 ETOT 18  -558.31316442715     -1.483E-06 4.768E-05 4.253E-06
 ETOT 19  -558.31316503330     -6.061E-07 5.677E-05 6.432E-07
 ETOT 20  -558.31316528157     -2.483E-07 8.005E-06 9.085E-08
 ETOT 21  -558.31316538310     -1.015E-07 9.629E-06 5.956E-08
 ETOT 22  -558.31316542479     -4.169E-08 1.346E-06 5.483E-09
 ETOT 23  -558.31316544185     -1.706E-08 1.633E-06 5.259E-08
 ETOT 24  -558.31316544880     -6.956E-09 2.272E-07 9.173E-08
 ETOT 25  -558.31316545178     -2.980E-09 2.765E-07 6.714E-08
 ETOT 26  -558.31316545289     -1.111E-09 3.828E-08 5.668E-08
 ETOT 27  -558.31316545333     -4.347E-10 4.676E-08 4.022E-08
 ETOT 28  -558.31316545355     -2.206E-10 6.439E-09 2.995E-08
 ETOT 29  -558.31316545360     -4.775E-11 7.936E-09 3.258E-08
 ETOT 30  -558.31316545366     -6.344E-11 1.085E-09 3.030E-08
 ETOT 31  -558.31316545366      4.320E-12 1.336E-09 2.460E-08
