
.Version 9.2.2 of ABINIT 
.(MPI version, prepared for a arm_darwin20.2.0_gnu10.2 computer) 

.Copyright (C) 1998-2020 ABINIT group . 
 ABINIT comes with ABSOLUTELY NO WARRANTY.
 It is free software, and you are welcome to redistribute it
 under certain conditions (GNU General Public License,
 see ~abinit/COPYING or http://www.gnu.org/copyleft/gpl.txt).

 ABINIT is a project of the Universite Catholique de Louvain,
 Corning Inc. and other collaborators, see ~abinit/doc/developers/contributors.txt .
 Please read https://docs.abinit.org/theory/acknowledgments for suggested
 acknowledgments of the ABINIT effort.
 For more information, see https://www.abinit.org .

.Starting date : Sun  7 Mar 2021.
- ( at 23h05 )
  
- input  file    -> NLO_1.abi
- output file    -> NLO_1.abo
- root for input  files -> NLO_1i
- root for output files -> NLO_1o


 DATASET    1 : space group F-4 3 m (#216); Bravais cF (face-center cubic)
================================================================================
 Values of the parameters that define the memory need for DATASET  1.
     intxc =       0    ionmov =       0      iscf =       7    lmnmax =       6
     lnmax =       6     mgfft =      54  mpssoang =       3    mqgrid =    3001
     natom =       2  nloc_mem =       1    nspden =       1   nspinor =       1
    nsppol =       1      nsym =      24    n1xccc =    2501    ntypat =       2
    occopt =       1   xclevel =       1
-    mband =          14        mffmem =           1         mkmem =           2
       mpw =        6823          nfft =      157464          nkpt =          10
================================================================================
P This job should need less than                      49.904 Mbytes of memory.
  Rough estimation (10% accuracy) of disk space for files :
_ WF disk file :     14.578 Mbytes ; DEN or POT disk file :      1.203 Mbytes.
================================================================================


 DATASET    2 : space group F-4 3 m (#216); Bravais cF (face-center cubic)
================================================================================
 Values of the parameters that define the memory need for DATASET  2.
     intxc =       0    ionmov =       0      iscf =      -2    lmnmax =       6
     lnmax =       6     mgfft =      54  mpssoang =       3    mqgrid =    3001
     natom =       2  nloc_mem =       1    nspden =       1   nspinor =       1
    nsppol =       1      nsym =      24    n1xccc =    2501    ntypat =       2
    occopt =       1   xclevel =       1
-    mband =          14        mffmem =           1         mkmem =          16
       mpw =        6823          nfft =      157464          nkpt =         128
================================================================================
P This job should need less than                      52.433 Mbytes of memory.
  Rough estimation (10% accuracy) of disk space for files :
_ WF disk file :    186.568 Mbytes ; DEN or POT disk file :      1.203 Mbytes.
================================================================================


 DATASET    3 : space group F-4 3 m (#216); Bravais cF (face-center cubic)
================================================================================
 Values of the parameters that define the memory need for DATASET  3 (RF).
     intxc =       0      iscf =       7    lmnmax =       6     lnmax =       6
     mgfft =      54  mpssoang =       3    mqgrid =    3001     natom =       2
  nloc_mem =       1    nspden =       1   nspinor =       1    nsppol =       1
      nsym =      24    n1xccc =    2501    ntypat =       2    occopt =       1
   xclevel =       1
-    mband =          14        mffmem =           1         mkmem =          16
-   mkqmem =          16        mk1mem =          16           mpw =        6823
      nfft =      157464          nkpt =         128
================================================================================
P This job should need less than                     109.758 Mbytes of memory.
  Rough estimation (10% accuracy) of disk space for files :
_ WF disk file :    186.568 Mbytes ; DEN or POT disk file :      1.203 Mbytes.
================================================================================


 DATASET    4 : space group F-4 3 m (#216); Bravais cF (face-center cubic)
================================================================================
 Values of the parameters that define the memory need for DATASET  4 (RF).
     intxc =       0      iscf =       7    lmnmax =       6     lnmax =       6
     mgfft =      54  mpssoang =       3    mqgrid =    3001     natom =       2
  nloc_mem =       1    nspden =       1   nspinor =       1    nsppol =       1
      nsym =      24    n1xccc =    2501    ntypat =       2    occopt =       1
   xclevel =       1
-    mband =          14        mffmem =           1         mkmem =          16
-   mkqmem =          16        mk1mem =          16           mpw =        6823
      nfft =      157464          nkpt =         128
================================================================================
P This job should need less than                     109.758 Mbytes of memory.
  Rough estimation (10% accuracy) of disk space for files :
_ WF disk file :    186.568 Mbytes ; DEN or POT disk file :      1.203 Mbytes.
================================================================================


 DATASET    5 : space group F-4 3 m (#216); Bravais cF (face-center cubic)
================================================================================
 Values of the parameters that define the memory need for DATASET  5 (RF).
     intxc =       0      iscf =       7    lmnmax =      18     lnmax =       6
     mgfft =      54  mpssoang =       3    mqgrid =    3001     natom =       2
  nloc_mem =       1    nspden =       1   nspinor =       1    nsppol =       1
      nsym =      24    n1xccc =    2501    ntypat =       2    occopt =       1
   xclevel =       1
-    mband =          14        mffmem =           1         mkmem =          16
-   mkqmem =          16        mk1mem =          16           mpw =        6823
      nfft =      157464          nkpt =         128
================================================================================
P This job should need less than                     128.288 Mbytes of memory.
  Rough estimation (10% accuracy) of disk space for files :
_ WF disk file :    186.568 Mbytes ; DEN or POT disk file :      1.203 Mbytes.
================================================================================


 DATASET    6 : space group F-4 3 m (#216); Bravais cF (face-center cubic)
================================================================================
 Values of the parameters that define the memory need for DATASET  6 (RF).
     intxc =       0      iscf =       7    lmnmax =      18     lnmax =       6
     mgfft =      54  mpssoang =       3    mqgrid =    3001     natom =       2
  nloc_mem =       1    nspden =       1   nspinor =       1    nsppol =       1
      nsym =      24    n1xccc =    2501    ntypat =       2    occopt =       1
   xclevel =       1
-    mband =          14        mffmem =           1         mkmem =          16
-   mkqmem =          16        mk1mem =          16           mpw =        6823
      nfft =      157464          nkpt =         128
================================================================================
P This job should need less than                     128.288 Mbytes of memory.
  Rough estimation (10% accuracy) of disk space for files :
_ WF disk file :    186.568 Mbytes ; DEN or POT disk file :      1.203 Mbytes.
================================================================================


 DATASET    7 : space group F-4 3 m (#216); Bravais cF (face-center cubic)
================================================================================
 Values of the parameters that define the memory need for DATASET  7.
     intxc =       0    ionmov =       0      iscf =       7    lmnmax =       6
     lnmax =       6     mgfft =      54  mpssoang =       3    mqgrid =    3001
     natom =       2  nloc_mem =       1    nspden =       1   nspinor =       1
    nsppol =       1      nsym =      24    n1xccc =    2501    ntypat =       2
    occopt =       1   xclevel =       1
-    mband =          14        mffmem =           1         mkmem =          16
       mpw =        6823          nfft =      157464          nkpt =         128
================================================================================
P This job should need less than                      71.655 Mbytes of memory.
  Rough estimation (10% accuracy) of disk space for files :
_ WF disk file :    186.568 Mbytes ; DEN or POT disk file :      1.203 Mbytes.
================================================================================

--------------------------------------------------------------------------------
------------- Echo of variables that govern the present computation ------------
--------------------------------------------------------------------------------
-
- outvars: echo of selected default values                                      
-   iomode0 =  0 , fftalg0 =312 , wfoptalg0 =  0
-
- outvars: echo of global parameters not present in the input file              
-  max_nthreads =    8
-
 -outvars: echo values of preprocessed input variables --------
            acell      1.2181502674E+01  1.2181502674E+01  1.2181502674E+01 Bohr
              amu      1.14820000E+02  1.21753000E+02
          dilatmx      1.05000000E+00
  d3e_pert1_atpol1          1       1
  d3e_pert1_atpol2          1       1
  d3e_pert1_atpol3          1       1
  d3e_pert1_atpol4          1       1
  d3e_pert1_atpol5          1       1
  d3e_pert1_atpol6          1       1
  d3e_pert1_atpol7          1       2
    d3e_pert1_dir1          0       0       0
    d3e_pert1_dir2          0       0       0
    d3e_pert1_dir3          0       0       0
    d3e_pert1_dir4          0       0       0
    d3e_pert1_dir5          0       0       0
    d3e_pert1_dir6          0       0       0
    d3e_pert1_dir7          1       1       1
   d3e_pert1_elfd1          0
   d3e_pert1_elfd2          0
   d3e_pert1_elfd3          0
   d3e_pert1_elfd4          0
   d3e_pert1_elfd5          0
   d3e_pert1_elfd6          0
   d3e_pert1_elfd7          1
   d3e_pert1_phon1          0
   d3e_pert1_phon2          0
   d3e_pert1_phon3          0
   d3e_pert1_phon4          0
   d3e_pert1_phon5          0
   d3e_pert1_phon6          0
   d3e_pert1_phon7          1
    d3e_pert2_dir1          0       0       0
    d3e_pert2_dir2          0       0       0
    d3e_pert2_dir3          0       0       0
    d3e_pert2_dir4          0       0       0
    d3e_pert2_dir5          0       0       0
    d3e_pert2_dir6          0       0       0
    d3e_pert2_dir7          1       1       1
   d3e_pert2_elfd1          0
   d3e_pert2_elfd2          0
   d3e_pert2_elfd3          0
   d3e_pert2_elfd4          0
   d3e_pert2_elfd5          0
   d3e_pert2_elfd6          0
   d3e_pert2_elfd7          1
    d3e_pert3_dir1          0       0       0
    d3e_pert3_dir2          0       0       0
    d3e_pert3_dir3          0       0       0
    d3e_pert3_dir4          0       0       0
    d3e_pert3_dir5          0       0       0
    d3e_pert3_dir6          0       0       0
    d3e_pert3_dir7          1       1       1
   d3e_pert3_elfd1          0
   d3e_pert3_elfd2          0
   d3e_pert3_elfd3          0
   d3e_pert3_elfd4          0
   d3e_pert3_elfd5          0
   d3e_pert3_elfd6          0
   d3e_pert3_elfd7          1
             ecut      4.20000000E+01 Hartree
           ecutsm      5.00000000E-01 Hartree
-          fftalg         312
           getddk1          0
           getddk2          0
           getddk3          0
           getddk4          3
           getddk5          3
           getddk6          3
           getddk7          3
         getdelfd1          0
         getdelfd2          0
         getdelfd3          0
         getdelfd4          0
         getdelfd5          0
         getdelfd6          4
         getdelfd7          0
          getdkdk1          0
          getdkdk2          0
          getdkdk3          0
          getdkdk4          0
          getdkdk5          0
          getdkdk6          5
          getdkdk7          0
          getdkde1          0
          getdkde2          0
          getdkde3          0
          getdkde4          0
          getdkde5          0
          getdkde6          0
          getdkde7          6
           getden1          0
           getden2          1
           getden3          0
           getden4          0
           getden5          0
           getden6          0
           getden7          0
           getwfk1          0
           getwfk2          1
           getwfk3          2
           getwfk4          2
           getwfk5          2
           getwfk6          2
           getwfk7          2
          get1den1          0
          get1den2          0
          get1den3          0
          get1den4          0
          get1den5          0
          get1den6          4
          get1den7          4
           get1wf1          0
           get1wf2          0
           get1wf3          0
           get1wf4          0
           get1wf5          0
           get1wf6          0
           get1wf7          4
             iscf1          7
             iscf2         -2
             iscf3          7
             iscf4          7
             iscf5          7
             iscf6          7
             iscf7          7
              ixc       -1012
           jdtset        1    2    3    4    5    6    7
              kpt1    -1.25000000E-01 -2.50000000E-01  0.00000000E+00
                      -1.25000000E-01  5.00000000E-01  0.00000000E+00
                      -2.50000000E-01 -3.75000000E-01  0.00000000E+00
                      -1.25000000E-01 -3.75000000E-01  1.25000000E-01
                      -1.25000000E-01  2.50000000E-01  0.00000000E+00
                      -2.50000000E-01  3.75000000E-01  0.00000000E+00
                      -3.75000000E-01  5.00000000E-01  0.00000000E+00
                      -2.50000000E-01  5.00000000E-01  1.25000000E-01
                      -1.25000000E-01  0.00000000E+00  0.00000000E+00
                      -3.75000000E-01  0.00000000E+00  0.00000000E+00
              kpt2    -1.25000000E-01 -2.50000000E-01  0.00000000E+00
                      -2.50000000E-01 -1.25000000E-01  0.00000000E+00
                      -1.25000000E-01 -1.25000000E-01  1.25000000E-01
                      -1.25000000E-01  5.00000000E-01  0.00000000E+00
                      -2.50000000E-01 -3.75000000E-01  0.00000000E+00
                      -1.25000000E-01 -3.75000000E-01  1.25000000E-01
                      -3.75000000E-01 -2.50000000E-01  0.00000000E+00
                      -2.50000000E-01 -2.50000000E-01  1.25000000E-01
                      -1.25000000E-01 -2.50000000E-01  2.50000000E-01
                       5.00000000E-01 -1.25000000E-01  0.00000000E+00
                      -3.75000000E-01 -1.25000000E-01  1.25000000E-01
                      -2.50000000E-01 -1.25000000E-01  2.50000000E-01
                      -1.25000000E-01 -1.25000000E-01  3.75000000E-01
                      -1.25000000E-01  2.50000000E-01  0.00000000E+00
                      -2.50000000E-01  3.75000000E-01  0.00000000E+00
                      -1.25000000E-01  3.75000000E-01  1.25000000E-01
                      -3.75000000E-01  5.00000000E-01  0.00000000E+00
                      -2.50000000E-01  5.00000000E-01  1.25000000E-01
                      -1.25000000E-01  5.00000000E-01  2.50000000E-01
                       5.00000000E-01 -3.75000000E-01  0.00000000E+00
                      -3.75000000E-01 -3.75000000E-01  1.25000000E-01
                      -2.50000000E-01 -3.75000000E-01  2.50000000E-01
                      -1.25000000E-01 -3.75000000E-01  3.75000000E-01
                       3.75000000E-01 -2.50000000E-01  0.00000000E+00
                       5.00000000E-01 -2.50000000E-01  1.25000000E-01
                      -3.75000000E-01 -2.50000000E-01  2.50000000E-01
                      -2.50000000E-01 -2.50000000E-01  3.75000000E-01
                      -1.25000000E-01 -2.50000000E-01  5.00000000E-01
                       2.50000000E-01 -1.25000000E-01  0.00000000E+00
                       3.75000000E-01 -1.25000000E-01  1.25000000E-01
                       5.00000000E-01 -1.25000000E-01  2.50000000E-01
                      -3.75000000E-01 -1.25000000E-01  3.75000000E-01
                      -2.50000000E-01 -1.25000000E-01  5.00000000E-01
                      -1.25000000E-01 -1.25000000E-01 -3.75000000E-01
                      -1.25000000E-01  0.00000000E+00  0.00000000E+00
                      -1.25000000E-01  1.25000000E-01  1.25000000E-01
                      -2.50000000E-01  2.50000000E-01  1.25000000E-01
                      -1.25000000E-01  2.50000000E-01  2.50000000E-01
                      -3.75000000E-01  3.75000000E-01  1.25000000E-01
                      -2.50000000E-01  3.75000000E-01  2.50000000E-01
                      -1.25000000E-01  3.75000000E-01  3.75000000E-01
                       5.00000000E-01  5.00000000E-01  1.25000000E-01
                      -3.75000000E-01  5.00000000E-01  2.50000000E-01
                      -2.50000000E-01  5.00000000E-01  3.75000000E-01
                      -1.25000000E-01  5.00000000E-01  5.00000000E-01
                       3.75000000E-01 -3.75000000E-01  1.25000000E-01
                       5.00000000E-01 -3.75000000E-01  2.50000000E-01
                      -3.75000000E-01 -3.75000000E-01  3.75000000E-01
                      -2.50000000E-01 -3.75000000E-01  5.00000000E-01
                      -1.25000000E-01 -3.75000000E-01 -3.75000000E-01
              kpt3    -1.25000000E-01 -2.50000000E-01  0.00000000E+00
                      -2.50000000E-01 -1.25000000E-01  0.00000000E+00
                      -1.25000000E-01 -1.25000000E-01  1.25000000E-01
                      -1.25000000E-01  5.00000000E-01  0.00000000E+00
                      -2.50000000E-01 -3.75000000E-01  0.00000000E+00
                      -1.25000000E-01 -3.75000000E-01  1.25000000E-01
                      -3.75000000E-01 -2.50000000E-01  0.00000000E+00
                      -2.50000000E-01 -2.50000000E-01  1.25000000E-01
                      -1.25000000E-01 -2.50000000E-01  2.50000000E-01
                       5.00000000E-01 -1.25000000E-01  0.00000000E+00
                      -3.75000000E-01 -1.25000000E-01  1.25000000E-01
                      -2.50000000E-01 -1.25000000E-01  2.50000000E-01
                      -1.25000000E-01 -1.25000000E-01  3.75000000E-01
                      -1.25000000E-01  2.50000000E-01  0.00000000E+00
                      -2.50000000E-01  3.75000000E-01  0.00000000E+00
                      -1.25000000E-01  3.75000000E-01  1.25000000E-01
                      -3.75000000E-01  5.00000000E-01  0.00000000E+00
                      -2.50000000E-01  5.00000000E-01  1.25000000E-01
                      -1.25000000E-01  5.00000000E-01  2.50000000E-01
                       5.00000000E-01 -3.75000000E-01  0.00000000E+00
                      -3.75000000E-01 -3.75000000E-01  1.25000000E-01
                      -2.50000000E-01 -3.75000000E-01  2.50000000E-01
                      -1.25000000E-01 -3.75000000E-01  3.75000000E-01
                       3.75000000E-01 -2.50000000E-01  0.00000000E+00
                       5.00000000E-01 -2.50000000E-01  1.25000000E-01
                      -3.75000000E-01 -2.50000000E-01  2.50000000E-01
                      -2.50000000E-01 -2.50000000E-01  3.75000000E-01
                      -1.25000000E-01 -2.50000000E-01  5.00000000E-01
                       2.50000000E-01 -1.25000000E-01  0.00000000E+00
                       3.75000000E-01 -1.25000000E-01  1.25000000E-01
                       5.00000000E-01 -1.25000000E-01  2.50000000E-01
                      -3.75000000E-01 -1.25000000E-01  3.75000000E-01
                      -2.50000000E-01 -1.25000000E-01  5.00000000E-01
                      -1.25000000E-01 -1.25000000E-01 -3.75000000E-01
                      -1.25000000E-01  0.00000000E+00  0.00000000E+00
                      -1.25000000E-01  1.25000000E-01  1.25000000E-01
                      -2.50000000E-01  2.50000000E-01  1.25000000E-01
                      -1.25000000E-01  2.50000000E-01  2.50000000E-01
                      -3.75000000E-01  3.75000000E-01  1.25000000E-01
                      -2.50000000E-01  3.75000000E-01  2.50000000E-01
                      -1.25000000E-01  3.75000000E-01  3.75000000E-01
                       5.00000000E-01  5.00000000E-01  1.25000000E-01
                      -3.75000000E-01  5.00000000E-01  2.50000000E-01
                      -2.50000000E-01  5.00000000E-01  3.75000000E-01
                      -1.25000000E-01  5.00000000E-01  5.00000000E-01
                       3.75000000E-01 -3.75000000E-01  1.25000000E-01
                       5.00000000E-01 -3.75000000E-01  2.50000000E-01
                      -3.75000000E-01 -3.75000000E-01  3.75000000E-01
                      -2.50000000E-01 -3.75000000E-01  5.00000000E-01
                      -1.25000000E-01 -3.75000000E-01 -3.75000000E-01
              kpt4    -1.25000000E-01 -2.50000000E-01  0.00000000E+00
                      -2.50000000E-01 -1.25000000E-01  0.00000000E+00
                      -1.25000000E-01 -1.25000000E-01  1.25000000E-01
                      -1.25000000E-01  5.00000000E-01  0.00000000E+00
                      -2.50000000E-01 -3.75000000E-01  0.00000000E+00
                      -1.25000000E-01 -3.75000000E-01  1.25000000E-01
                      -3.75000000E-01 -2.50000000E-01  0.00000000E+00
                      -2.50000000E-01 -2.50000000E-01  1.25000000E-01
                      -1.25000000E-01 -2.50000000E-01  2.50000000E-01
                       5.00000000E-01 -1.25000000E-01  0.00000000E+00
                      -3.75000000E-01 -1.25000000E-01  1.25000000E-01
                      -2.50000000E-01 -1.25000000E-01  2.50000000E-01
                      -1.25000000E-01 -1.25000000E-01  3.75000000E-01
                      -1.25000000E-01  2.50000000E-01  0.00000000E+00
                      -2.50000000E-01  3.75000000E-01  0.00000000E+00
                      -1.25000000E-01  3.75000000E-01  1.25000000E-01
                      -3.75000000E-01  5.00000000E-01  0.00000000E+00
                      -2.50000000E-01  5.00000000E-01  1.25000000E-01
                      -1.25000000E-01  5.00000000E-01  2.50000000E-01
                       5.00000000E-01 -3.75000000E-01  0.00000000E+00
                      -3.75000000E-01 -3.75000000E-01  1.25000000E-01
                      -2.50000000E-01 -3.75000000E-01  2.50000000E-01
                      -1.25000000E-01 -3.75000000E-01  3.75000000E-01
                       3.75000000E-01 -2.50000000E-01  0.00000000E+00
                       5.00000000E-01 -2.50000000E-01  1.25000000E-01
                      -3.75000000E-01 -2.50000000E-01  2.50000000E-01
                      -2.50000000E-01 -2.50000000E-01  3.75000000E-01
                      -1.25000000E-01 -2.50000000E-01  5.00000000E-01
                       2.50000000E-01 -1.25000000E-01  0.00000000E+00
                       3.75000000E-01 -1.25000000E-01  1.25000000E-01
                       5.00000000E-01 -1.25000000E-01  2.50000000E-01
                      -3.75000000E-01 -1.25000000E-01  3.75000000E-01
                      -2.50000000E-01 -1.25000000E-01  5.00000000E-01
                      -1.25000000E-01 -1.25000000E-01 -3.75000000E-01
                      -1.25000000E-01  0.00000000E+00  0.00000000E+00
                      -1.25000000E-01  1.25000000E-01  1.25000000E-01
                      -2.50000000E-01  2.50000000E-01  1.25000000E-01
                      -1.25000000E-01  2.50000000E-01  2.50000000E-01
                      -3.75000000E-01  3.75000000E-01  1.25000000E-01
                      -2.50000000E-01  3.75000000E-01  2.50000000E-01
                      -1.25000000E-01  3.75000000E-01  3.75000000E-01
                       5.00000000E-01  5.00000000E-01  1.25000000E-01
                      -3.75000000E-01  5.00000000E-01  2.50000000E-01
                      -2.50000000E-01  5.00000000E-01  3.75000000E-01
                      -1.25000000E-01  5.00000000E-01  5.00000000E-01
                       3.75000000E-01 -3.75000000E-01  1.25000000E-01
                       5.00000000E-01 -3.75000000E-01  2.50000000E-01
                      -3.75000000E-01 -3.75000000E-01  3.75000000E-01
                      -2.50000000E-01 -3.75000000E-01  5.00000000E-01
                      -1.25000000E-01 -3.75000000E-01 -3.75000000E-01
              kpt5    -1.25000000E-01 -2.50000000E-01  0.00000000E+00
                      -2.50000000E-01 -1.25000000E-01  0.00000000E+00
                      -1.25000000E-01 -1.25000000E-01  1.25000000E-01
                      -1.25000000E-01  5.00000000E-01  0.00000000E+00
                      -2.50000000E-01 -3.75000000E-01  0.00000000E+00
                      -1.25000000E-01 -3.75000000E-01  1.25000000E-01
                      -3.75000000E-01 -2.50000000E-01  0.00000000E+00
                      -2.50000000E-01 -2.50000000E-01  1.25000000E-01
                      -1.25000000E-01 -2.50000000E-01  2.50000000E-01
                       5.00000000E-01 -1.25000000E-01  0.00000000E+00
                      -3.75000000E-01 -1.25000000E-01  1.25000000E-01
                      -2.50000000E-01 -1.25000000E-01  2.50000000E-01
                      -1.25000000E-01 -1.25000000E-01  3.75000000E-01
                      -1.25000000E-01  2.50000000E-01  0.00000000E+00
                      -2.50000000E-01  3.75000000E-01  0.00000000E+00
                      -1.25000000E-01  3.75000000E-01  1.25000000E-01
                      -3.75000000E-01  5.00000000E-01  0.00000000E+00
                      -2.50000000E-01  5.00000000E-01  1.25000000E-01
                      -1.25000000E-01  5.00000000E-01  2.50000000E-01
                       5.00000000E-01 -3.75000000E-01  0.00000000E+00
                      -3.75000000E-01 -3.75000000E-01  1.25000000E-01
                      -2.50000000E-01 -3.75000000E-01  2.50000000E-01
                      -1.25000000E-01 -3.75000000E-01  3.75000000E-01
                       3.75000000E-01 -2.50000000E-01  0.00000000E+00
                       5.00000000E-01 -2.50000000E-01  1.25000000E-01
                      -3.75000000E-01 -2.50000000E-01  2.50000000E-01
                      -2.50000000E-01 -2.50000000E-01  3.75000000E-01
                      -1.25000000E-01 -2.50000000E-01  5.00000000E-01
                       2.50000000E-01 -1.25000000E-01  0.00000000E+00
                       3.75000000E-01 -1.25000000E-01  1.25000000E-01
                       5.00000000E-01 -1.25000000E-01  2.50000000E-01
                      -3.75000000E-01 -1.25000000E-01  3.75000000E-01
                      -2.50000000E-01 -1.25000000E-01  5.00000000E-01
                      -1.25000000E-01 -1.25000000E-01 -3.75000000E-01
                      -1.25000000E-01  0.00000000E+00  0.00000000E+00
                      -1.25000000E-01  1.25000000E-01  1.25000000E-01
                      -2.50000000E-01  2.50000000E-01  1.25000000E-01
                      -1.25000000E-01  2.50000000E-01  2.50000000E-01
                      -3.75000000E-01  3.75000000E-01  1.25000000E-01
                      -2.50000000E-01  3.75000000E-01  2.50000000E-01
                      -1.25000000E-01  3.75000000E-01  3.75000000E-01
                       5.00000000E-01  5.00000000E-01  1.25000000E-01
                      -3.75000000E-01  5.00000000E-01  2.50000000E-01
                      -2.50000000E-01  5.00000000E-01  3.75000000E-01
                      -1.25000000E-01  5.00000000E-01  5.00000000E-01
                       3.75000000E-01 -3.75000000E-01  1.25000000E-01
                       5.00000000E-01 -3.75000000E-01  2.50000000E-01
                      -3.75000000E-01 -3.75000000E-01  3.75000000E-01
                      -2.50000000E-01 -3.75000000E-01  5.00000000E-01
                      -1.25000000E-01 -3.75000000E-01 -3.75000000E-01
              kpt6    -1.25000000E-01 -2.50000000E-01  0.00000000E+00
                      -2.50000000E-01 -1.25000000E-01  0.00000000E+00
                      -1.25000000E-01 -1.25000000E-01  1.25000000E-01
                      -1.25000000E-01  5.00000000E-01  0.00000000E+00
                      -2.50000000E-01 -3.75000000E-01  0.00000000E+00
                      -1.25000000E-01 -3.75000000E-01  1.25000000E-01
                      -3.75000000E-01 -2.50000000E-01  0.00000000E+00
                      -2.50000000E-01 -2.50000000E-01  1.25000000E-01
                      -1.25000000E-01 -2.50000000E-01  2.50000000E-01
                       5.00000000E-01 -1.25000000E-01  0.00000000E+00
                      -3.75000000E-01 -1.25000000E-01  1.25000000E-01
                      -2.50000000E-01 -1.25000000E-01  2.50000000E-01
                      -1.25000000E-01 -1.25000000E-01  3.75000000E-01
                      -1.25000000E-01  2.50000000E-01  0.00000000E+00
                      -2.50000000E-01  3.75000000E-01  0.00000000E+00
                      -1.25000000E-01  3.75000000E-01  1.25000000E-01
                      -3.75000000E-01  5.00000000E-01  0.00000000E+00
                      -2.50000000E-01  5.00000000E-01  1.25000000E-01
                      -1.25000000E-01  5.00000000E-01  2.50000000E-01
                       5.00000000E-01 -3.75000000E-01  0.00000000E+00
                      -3.75000000E-01 -3.75000000E-01  1.25000000E-01
                      -2.50000000E-01 -3.75000000E-01  2.50000000E-01
                      -1.25000000E-01 -3.75000000E-01  3.75000000E-01
                       3.75000000E-01 -2.50000000E-01  0.00000000E+00
                       5.00000000E-01 -2.50000000E-01  1.25000000E-01
                      -3.75000000E-01 -2.50000000E-01  2.50000000E-01
                      -2.50000000E-01 -2.50000000E-01  3.75000000E-01
                      -1.25000000E-01 -2.50000000E-01  5.00000000E-01
                       2.50000000E-01 -1.25000000E-01  0.00000000E+00
                       3.75000000E-01 -1.25000000E-01  1.25000000E-01
                       5.00000000E-01 -1.25000000E-01  2.50000000E-01
                      -3.75000000E-01 -1.25000000E-01  3.75000000E-01
                      -2.50000000E-01 -1.25000000E-01  5.00000000E-01
                      -1.25000000E-01 -1.25000000E-01 -3.75000000E-01
                      -1.25000000E-01  0.00000000E+00  0.00000000E+00
                      -1.25000000E-01  1.25000000E-01  1.25000000E-01
                      -2.50000000E-01  2.50000000E-01  1.25000000E-01
                      -1.25000000E-01  2.50000000E-01  2.50000000E-01
                      -3.75000000E-01  3.75000000E-01  1.25000000E-01
                      -2.50000000E-01  3.75000000E-01  2.50000000E-01
                      -1.25000000E-01  3.75000000E-01  3.75000000E-01
                       5.00000000E-01  5.00000000E-01  1.25000000E-01
                      -3.75000000E-01  5.00000000E-01  2.50000000E-01
                      -2.50000000E-01  5.00000000E-01  3.75000000E-01
                      -1.25000000E-01  5.00000000E-01  5.00000000E-01
                       3.75000000E-01 -3.75000000E-01  1.25000000E-01
                       5.00000000E-01 -3.75000000E-01  2.50000000E-01
                      -3.75000000E-01 -3.75000000E-01  3.75000000E-01
                      -2.50000000E-01 -3.75000000E-01  5.00000000E-01
                      -1.25000000E-01 -3.75000000E-01 -3.75000000E-01
              kpt7    -1.25000000E-01 -2.50000000E-01  0.00000000E+00
                      -2.50000000E-01 -1.25000000E-01  0.00000000E+00
                      -1.25000000E-01 -1.25000000E-01  1.25000000E-01
                      -1.25000000E-01  5.00000000E-01  0.00000000E+00
                      -2.50000000E-01 -3.75000000E-01  0.00000000E+00
                      -1.25000000E-01 -3.75000000E-01  1.25000000E-01
                      -3.75000000E-01 -2.50000000E-01  0.00000000E+00
                      -2.50000000E-01 -2.50000000E-01  1.25000000E-01
                      -1.25000000E-01 -2.50000000E-01  2.50000000E-01
                       5.00000000E-01 -1.25000000E-01  0.00000000E+00
                      -3.75000000E-01 -1.25000000E-01  1.25000000E-01
                      -2.50000000E-01 -1.25000000E-01  2.50000000E-01
                      -1.25000000E-01 -1.25000000E-01  3.75000000E-01
                      -1.25000000E-01  2.50000000E-01  0.00000000E+00
                      -2.50000000E-01  3.75000000E-01  0.00000000E+00
                      -1.25000000E-01  3.75000000E-01  1.25000000E-01
                      -3.75000000E-01  5.00000000E-01  0.00000000E+00
                      -2.50000000E-01  5.00000000E-01  1.25000000E-01
                      -1.25000000E-01  5.00000000E-01  2.50000000E-01
                       5.00000000E-01 -3.75000000E-01  0.00000000E+00
                      -3.75000000E-01 -3.75000000E-01  1.25000000E-01
                      -2.50000000E-01 -3.75000000E-01  2.50000000E-01
                      -1.25000000E-01 -3.75000000E-01  3.75000000E-01
                       3.75000000E-01 -2.50000000E-01  0.00000000E+00
                       5.00000000E-01 -2.50000000E-01  1.25000000E-01
                      -3.75000000E-01 -2.50000000E-01  2.50000000E-01
                      -2.50000000E-01 -2.50000000E-01  3.75000000E-01
                      -1.25000000E-01 -2.50000000E-01  5.00000000E-01
                       2.50000000E-01 -1.25000000E-01  0.00000000E+00
                       3.75000000E-01 -1.25000000E-01  1.25000000E-01
                       5.00000000E-01 -1.25000000E-01  2.50000000E-01
                      -3.75000000E-01 -1.25000000E-01  3.75000000E-01
                      -2.50000000E-01 -1.25000000E-01  5.00000000E-01
                      -1.25000000E-01 -1.25000000E-01 -3.75000000E-01
                      -1.25000000E-01  0.00000000E+00  0.00000000E+00
                      -1.25000000E-01  1.25000000E-01  1.25000000E-01
                      -2.50000000E-01  2.50000000E-01  1.25000000E-01
                      -1.25000000E-01  2.50000000E-01  2.50000000E-01
                      -3.75000000E-01  3.75000000E-01  1.25000000E-01
                      -2.50000000E-01  3.75000000E-01  2.50000000E-01
                      -1.25000000E-01  3.75000000E-01  3.75000000E-01
                       5.00000000E-01  5.00000000E-01  1.25000000E-01
                      -3.75000000E-01  5.00000000E-01  2.50000000E-01
                      -2.50000000E-01  5.00000000E-01  3.75000000E-01
                      -1.25000000E-01  5.00000000E-01  5.00000000E-01
                       3.75000000E-01 -3.75000000E-01  1.25000000E-01
                       5.00000000E-01 -3.75000000E-01  2.50000000E-01
                      -3.75000000E-01 -3.75000000E-01  3.75000000E-01
                      -2.50000000E-01 -3.75000000E-01  5.00000000E-01
                      -1.25000000E-01 -3.75000000E-01 -3.75000000E-01
                       outvar_i_n : Printing only first  50 k-points.
           kptopt1          1
           kptopt2          2
           kptopt3          2
           kptopt4          2
           kptopt5          2
           kptopt6          2
           kptopt7          2
         kptrlatt        4   -4    4     -4    4    4     -4   -4    4
          kptrlen      4.87260107E+01
P           mkmem1          2
P           mkmem2         16
P           mkmem3         16
P           mkmem4         16
P           mkmem5         16
P           mkmem6         16
P           mkmem7         16
P          mkqmem1          2
P          mkqmem2         16
P          mkqmem3         16
P          mkqmem4         16
P          mkqmem5         16
P          mkqmem6         16
P          mkqmem7         16
P          mk1mem1          2
P          mk1mem2         16
P          mk1mem3         16
P          mk1mem4         16
P          mk1mem5         16
P          mk1mem6         16
P          mk1mem7         16
            natom           2
            nband1         14
            nband2         14
            nband3         14
            nband4         14
            nband5         14
            nband6         14
            nband7         14
           ndtset           7
            ngfft          54      54      54
             nkpt1         10
             nkpt2        128
             nkpt3        128
             nkpt4        128
             nkpt5        128
             nkpt6        128
             nkpt7        128
            nstep         100
             nsym          24
           ntypat           2
              occ1     2.000000  2.000000  2.000000  2.000000  2.000000  2.000000
                       2.000000  2.000000  2.000000  2.000000  2.000000  2.000000
                       2.000000  2.000000
              occ3     2.000000  2.000000  2.000000  2.000000  2.000000  2.000000
                       2.000000  2.000000  2.000000  2.000000  2.000000  2.000000
                       2.000000  2.000000
              occ4     2.000000  2.000000  2.000000  2.000000  2.000000  2.000000
                       2.000000  2.000000  2.000000  2.000000  2.000000  2.000000
                       2.000000  2.000000
              occ5     2.000000  2.000000  2.000000  2.000000  2.000000  2.000000
                       2.000000  2.000000  2.000000  2.000000  2.000000  2.000000
                       2.000000  2.000000
              occ6     2.000000  2.000000  2.000000  2.000000  2.000000  2.000000
                       2.000000  2.000000  2.000000  2.000000  2.000000  2.000000
                       2.000000  2.000000
              occ7     2.000000  2.000000  2.000000  2.000000  2.000000  2.000000
                       2.000000  2.000000  2.000000  2.000000  2.000000  2.000000
                       2.000000  2.000000
        optdriver1          0
        optdriver2          0
        optdriver3          1
        optdriver4          1
        optdriver5          1
        optdriver6          1
        optdriver7          5
          prepanl1          0
          prepanl2          0
          prepanl3          0
          prepanl4          1
          prepanl5          1
          prepanl6          1
          prepanl7          0
          rfatpol1          1       1
          rfatpol2          1       1
          rfatpol3          1       1
          rfatpol4          1       2
          rfatpol5          1       1
          rfatpol6          1       1
          rfatpol7          1       1
            rfdir1          0       0       0
            rfdir2          0       0       0
            rfdir3          1       1       1
            rfdir4          1       1       1
            rfdir5          1       1       1
            rfdir6          1       1       1
            rfdir7          0       0       0
           rfelfd1          0
           rfelfd2          0
           rfelfd3          2
           rfelfd4          3
           rfelfd5          0
           rfelfd6          0
           rfelfd7          0
           rfphon1          0
           rfphon2          0
           rfphon3          0
           rfphon4          1
           rfphon5          0
           rfphon6          0
           rfphon7          0
           rfstrs1          0
           rfstrs2          0
           rfstrs3          0
           rfstrs4          3
           rfstrs5          0
           rfstrs6          0
           rfstrs7          0
         rf2_dkdk1          0
         rf2_dkdk2          0
         rf2_dkdk3          0
         rf2_dkdk4          0
         rf2_dkdk5          1
         rf2_dkdk6          0
         rf2_dkdk7          0
         rf2_dkde1          0
         rf2_dkde2          0
         rf2_dkde3          0
         rf2_dkde4          0
         rf2_dkde5          0
         rf2_dkde6          1
         rf2_dkde7          0
    rf2_pert1_dir1          0       0       0
    rf2_pert1_dir2          0       0       0
    rf2_pert1_dir3          0       0       0
    rf2_pert1_dir4          0       0       0
    rf2_pert1_dir5          1       1       1
    rf2_pert1_dir6          1       1       1
    rf2_pert1_dir7          0       0       0
    rf2_pert2_dir1          0       0       0
    rf2_pert2_dir2          0       0       0
    rf2_pert2_dir3          0       0       0
    rf2_pert2_dir4          0       0       0
    rf2_pert2_dir5          1       1       1
    rf2_pert2_dir6          1       1       1
    rf2_pert2_dir7          0       0       0
            rprim      0.0000000000E+00  5.0000000000E-01  5.0000000000E-01
                       5.0000000000E-01  0.0000000000E+00  5.0000000000E-01
                       5.0000000000E-01  5.0000000000E-01  0.0000000000E+00
           shiftk      5.00000000E-01  5.00000000E-01  5.00000000E-01
          spgroup         216
           symrel      1  0  0   0  1  0   0  0  1       0 -1  1   0 -1  0   1 -1  0
                      -1  0  0  -1  0  1  -1  1  0       0  1 -1   1  0 -1   0  0 -1
                      -1  0  0  -1  1  0  -1  0  1       0 -1  1   1 -1  0   0 -1  0
                       1  0  0   0  0  1   0  1  0       0  1 -1   0  0 -1   1  0 -1
                      -1  0  1  -1  1  0  -1  0  0       0 -1  0   1 -1  0   0 -1  1
                       1  0 -1   0  0 -1   0  1 -1       0  1  0   0  0  1   1  0  0
                       1  0 -1   0  1 -1   0  0 -1       0 -1  0   0 -1  1   1 -1  0
                      -1  0  1  -1  0  0  -1  1  0       0  1  0   1  0  0   0  0  1
                       0  0 -1   0  1 -1   1  0 -1       1 -1  0   0 -1  1   0 -1  0
                       0  0  1   1  0  0   0  1  0      -1  1  0  -1  0  0  -1  0  1
                       0  0  1   0  1  0   1  0  0       1 -1  0   0 -1  0   0 -1  1
                       0  0 -1   1  0 -1   0  1 -1      -1  1  0  -1  0  1  -1  0  0
           tolvrs1     0.00000000E+00
           tolvrs2     0.00000000E+00
           tolvrs3     0.00000000E+00
           tolvrs4     1.00000000E-12
           tolvrs5     0.00000000E+00
           tolvrs6     0.00000000E+00
           tolvrs7     0.00000000E+00
           tolwfr1     1.00000000E-22
           tolwfr2     1.00000000E-22
           tolwfr3     1.00000000E-22
           tolwfr4     0.00000000E+00
           tolwfr5     1.00000000E-22
           tolwfr6     1.00000000E-22
           tolwfr7     0.00000000E+00
            typat      1  2
          usepead1          1
          usepead2          1
          usepead3          1
          usepead4          1
          usepead5          1
          usepead6          1
          usepead7          0
           useylm1          0
           useylm2          0
           useylm3          0
           useylm4          0
           useylm5          1
           useylm6          1
           useylm7          0
              wtk1       0.09375    0.09375    0.09375    0.18750    0.09375    0.09375
                         0.09375    0.18750    0.03125    0.03125
              wtk2       0.00781    0.00781    0.00781    0.00781    0.00781    0.00781
                         0.00781    0.00781    0.00781    0.00781    0.00781    0.00781
                         0.00781    0.00781    0.00781    0.00781    0.00781    0.00781
                         0.00781    0.00781    0.00781    0.00781    0.00781    0.00781
                         0.00781    0.00781    0.00781    0.00781    0.00781    0.00781
                         0.00781    0.00781    0.00781    0.00781    0.00781    0.00781
                         0.00781    0.00781    0.00781    0.00781    0.00781    0.00781
                         0.00781    0.00781    0.00781    0.00781    0.00781    0.00781
                         0.00781    0.00781
              wtk3       0.00781    0.00781    0.00781    0.00781    0.00781    0.00781
                         0.00781    0.00781    0.00781    0.00781    0.00781    0.00781
                         0.00781    0.00781    0.00781    0.00781    0.00781    0.00781
                         0.00781    0.00781    0.00781    0.00781    0.00781    0.00781
                         0.00781    0.00781    0.00781    0.00781    0.00781    0.00781
                         0.00781    0.00781    0.00781    0.00781    0.00781    0.00781
                         0.00781    0.00781    0.00781    0.00781    0.00781    0.00781
                         0.00781    0.00781    0.00781    0.00781    0.00781    0.00781
                         0.00781    0.00781
              wtk4       0.00781    0.00781    0.00781    0.00781    0.00781    0.00781
                         0.00781    0.00781    0.00781    0.00781    0.00781    0.00781
                         0.00781    0.00781    0.00781    0.00781    0.00781    0.00781
                         0.00781    0.00781    0.00781    0.00781    0.00781    0.00781
                         0.00781    0.00781    0.00781    0.00781    0.00781    0.00781
                         0.00781    0.00781    0.00781    0.00781    0.00781    0.00781
                         0.00781    0.00781    0.00781    0.00781    0.00781    0.00781
                         0.00781    0.00781    0.00781    0.00781    0.00781    0.00781
                         0.00781    0.00781
              wtk5       0.00781    0.00781    0.00781    0.00781    0.00781    0.00781
                         0.00781    0.00781    0.00781    0.00781    0.00781    0.00781
                         0.00781    0.00781    0.00781    0.00781    0.00781    0.00781
                         0.00781    0.00781    0.00781    0.00781    0.00781    0.00781
                         0.00781    0.00781    0.00781    0.00781    0.00781    0.00781
                         0.00781    0.00781    0.00781    0.00781    0.00781    0.00781
                         0.00781    0.00781    0.00781    0.00781    0.00781    0.00781
                         0.00781    0.00781    0.00781    0.00781    0.00781    0.00781
                         0.00781    0.00781
              wtk6       0.00781    0.00781    0.00781    0.00781    0.00781    0.00781
                         0.00781    0.00781    0.00781    0.00781    0.00781    0.00781
                         0.00781    0.00781    0.00781    0.00781    0.00781    0.00781
                         0.00781    0.00781    0.00781    0.00781    0.00781    0.00781
                         0.00781    0.00781    0.00781    0.00781    0.00781    0.00781
                         0.00781    0.00781    0.00781    0.00781    0.00781    0.00781
                         0.00781    0.00781    0.00781    0.00781    0.00781    0.00781
                         0.00781    0.00781    0.00781    0.00781    0.00781    0.00781
                         0.00781    0.00781
              wtk7       0.00781    0.00781    0.00781    0.00781    0.00781    0.00781
                         0.00781    0.00781    0.00781    0.00781    0.00781    0.00781
                         0.00781    0.00781    0.00781    0.00781    0.00781    0.00781
                         0.00781    0.00781    0.00781    0.00781    0.00781    0.00781
                         0.00781    0.00781    0.00781    0.00781    0.00781    0.00781
                         0.00781    0.00781    0.00781    0.00781    0.00781    0.00781
                         0.00781    0.00781    0.00781    0.00781    0.00781    0.00781
                         0.00781    0.00781    0.00781    0.00781    0.00781    0.00781
                         0.00781    0.00781
                       outvars : Printing only first  50 k-points.
           xangst      0.0000000000E+00  0.0000000000E+00  0.0000000000E+00
                       1.6115433954E+00  1.6115433954E+00  1.6115433954E+00
            xcart      0.0000000000E+00  0.0000000000E+00  0.0000000000E+00
                       3.0453756685E+00  3.0453756685E+00  3.0453756685E+00
             xred      0.0000000000E+00  0.0000000000E+00  0.0000000000E+00
                       2.5000000000E-01  2.5000000000E-01  2.5000000000E-01
            znucl       49.00000   51.00000

================================================================================

 chkinp: Checking input parameters for consistency, jdtset=   1.

 chkinp: Checking input parameters for consistency, jdtset=   2.

 chkinp: Checking input parameters for consistency, jdtset=   3.

 chkinp: Checking input parameters for consistency, jdtset=   4.

 chkinp: Checking input parameters for consistency, jdtset=   5.

 chkinp: Checking input parameters for consistency, jdtset=   6.

 chkinp: Checking input parameters for consistency, jdtset=   7.

================================================================================
== DATASET  1 ==================================================================
-   mpi_nproc: 8, omp_nthreads: 8 (-1 if OMP is not activated)
-    --> not optimal distribution: autoparal keyword recommended in input file <--


--- !DatasetInfo
iteration_state: {dtset: 1, }
dimensions: {natom: 2, nkpt: 10, mband: 14, nsppol: 1, nspinor: 1, nspden: 1, mpw: 6823, }
cutoff_energies: {ecut:  42.0, pawecutdg:  -1.0, }
electrons: {nelect:   2.80000000E+01, charge:   0.00000000E+00, occopt:   1.00000000E+00, tsmear:   1.00000000E-02, }
meta: {optdriver: 0, ionmov: 0, optcell: 0, iscf: 7, paral_kgb: 0, }
...

 Real(R)+Recip(G) space primitive vectors, cartesian coordinates (Bohr,Bohr^-1):
 R(1)=  0.0000000  6.0907513  6.0907513  G(1)= -0.0820917  0.0820917  0.0820917
 R(2)=  6.0907513  0.0000000  6.0907513  G(2)=  0.0820917 -0.0820917  0.0820917
 R(3)=  6.0907513  6.0907513  0.0000000  G(3)=  0.0820917  0.0820917 -0.0820917
 Unit cell volume ucvol=  4.5190027E+02 bohr^3
 Angles (23,13,12)=  6.00000000E+01  6.00000000E+01  6.00000000E+01 degrees

 getcut: wavevector=  0.0000  0.0000  0.0000  ngfft=  54  54  54
         ecut(hartree)=     46.305   => boxcut(ratio)=   2.04728

--- Pseudopotential description ------------------------------------------------
- pspini: atom type   1  psp file is /Users/lassi/Desktop/abinit_InSb/simulations/pseudos/In.psp8
- pspatm: opening atomic psp file    /Users/lassi/Desktop/abinit_InSb/simulations/pseudos/In.psp8
- In    ONCVPSP-3.3.0  r_core=   2.21158   2.37566   1.87143
- 49.00000  13.00000    171103                znucl, zion, pspdat
    8   -1012    2    4       600   0.00000   pspcod,pspxc,lmax,lloc,mmax,r2well
    5.99000000000000    5.00000000000000    0.00000000000000   rchrg,fchrg,qchrg
     nproj     2     2     2
     extension_switch     1
  pspatm : epsatm=   25.24256501
         --- l  ekb(1:nproj) -->
             0    8.133624    1.226031
             1    5.976255    1.015318
             2   -4.092403   -1.250253
 pspatm: atomic psp has been read  and splines computed

- pspini: atom type   2  psp file is /Users/lassi/Desktop/abinit_InSb/simulations/pseudos/Sb.psp8
- pspatm: opening atomic psp file    /Users/lassi/Desktop/abinit_InSb/simulations/pseudos/Sb.psp8
- Sb    ONCVPSP-3.3.0  r_core=   1.90855   2.12485   1.81962
- 51.00000  15.00000    171103                znucl, zion, pspdat
    8   -1012    2    4       600   0.00000   pspcod,pspxc,lmax,lloc,mmax,r2well
    5.99000000000000    5.00000000000000    0.00000000000000   rchrg,fchrg,qchrg
     nproj     2     2     2
     extension_switch     1
  pspatm : epsatm=   26.56042488
         --- l  ekb(1:nproj) -->
             0    7.790707    1.044356
             1    5.463367    0.704398
             2   -4.791489   -1.453703
 pspatm: atomic psp has been read  and splines computed

   1.45048372E+03                                ecore*ucvol(ha*bohr**3)
--------------------------------------------------------------------------------

_setup2: Arith. and geom. avg. npw (full set) are    6802.250    6802.243

================================================================================

--- !BeginCycle
iteration_state: {dtset: 1, }
solver: {iscf: 7, nstep: 100, nline: 4, wfoptalg: 0, }
tolerances: {tolwfr: 1.00E-22, }
...

     iter   Etot(hartree)      deltaE(h)  residm     vres2
 ETOT  1  -153.53150350670    -1.535E+02 4.447E-01 6.190E+03
 ETOT  2  -156.30910386732    -2.778E+00 8.206E-02 7.444E+03
 ETOT  3  -156.87371818682    -5.646E-01 1.655E-02 1.518E+03
 ETOT  4  -156.94438689875    -7.067E-02 1.285E-02 6.482E+02
 ETOT  5  -156.97573607211    -3.135E-02 8.177E-04 2.464E+02
 ETOT  6  -156.99200194997    -1.627E-02 4.482E-04 3.353E+01
 ETOT  7  -156.99465084162    -2.649E-03 8.007E-05 8.078E-03
 ETOT  8  -156.99465568377    -4.842E-06 6.602E-06 4.490E-03
 ETOT  9  -156.99465638268    -6.989E-07 2.659E-06 7.304E-05
 ETOT 10  -156.99465646103    -7.835E-08 2.888E-07 7.959E-07
 ETOT 11  -156.99465647570    -1.466E-08 1.331E-07 1.308E-06
 ETOT 12  -156.99465647896    -3.264E-09 1.479E-08 2.347E-07
 ETOT 13  -156.99465647969    -7.235E-10 6.713E-09 3.139E-10
 ETOT 14  -156.99465647984    -1.543E-10 7.438E-10 2.186E-09
 ETOT 15  -156.99465647988    -3.618E-11 3.392E-10 1.475E-11
 ETOT 16  -156.99465647988    -9.123E-12 3.752E-11 6.365E-12
 ETOT 17  -156.99465647989    -1.791E-12 1.714E-11 5.721E-13
 ETOT 18  -156.99465647988     3.297E-12 1.875E-12 1.478E-14
 ETOT 19  -156.99465647989    -2.956E-12 7.060E-13 2.964E-15
 ETOT 20  -156.99465647989     1.137E-13 9.112E-14 1.529E-16
 ETOT 21  -156.99465647988     3.070E-12 4.222E-14 3.564E-16
 ETOT 22  -156.99465647989    -1.819E-12 4.649E-15 5.855E-16
 ETOT 23  -156.99465647989    -8.527E-14 2.139E-15 1.059E-15
 ETOT 24  -156.99465647988     3.979E-13 2.345E-16 9.932E-16
 ETOT 25  -156.99465647989    -9.948E-13 1.082E-16 6.093E-16
 ETOT 26  -156.99465647989    -1.137E-12 1.182E-17 5.108E-16
 ETOT 27  -156.99465647988     2.615E-12 5.464E-18 4.402E-17
 ETOT 28  -156.99465647988    -1.421E-13 5.960E-19 1.832E-16
 ETOT 29  -156.99465647988    -4.832E-13 2.779E-19 4.751E-17
 ETOT 30  -156.99465647988     2.359E-12 3.034E-20 3.876E-18
 ETOT 31  -156.99465647988    -2.274E-13 1.395E-20 1.850E-18
 ETOT 32  -156.99465647988     6.253E-13 1.520E-21 3.342E-18
 ETOT 33  -156.99465647988     5.969E-13 6.708E-22 4.986E-18
 ETOT 34  -156.99465647988    -1.137E-13 8.441E-23 4.244E-18

 At SCF step   34   max residual=  8.44E-23 < tolwfr=  1.00E-22 =>converged.

 Cartesian components of stress tensor (hartree/bohr^3)
  sigma(1 1)=  3.35470404E-09  sigma(3 2)=  0.00000000E+00
  sigma(2 2)=  3.35470404E-09  sigma(3 1)=  0.00000000E+00
  sigma(3 3)=  3.35470404E-09  sigma(2 1)=  0.00000000E+00


--- !ResultsGS
iteration_state: {dtset: 1, }
comment   : Summary of ground state results
lattice_vectors:
- [  0.0000000,   6.0907513,   6.0907513, ]
- [  6.0907513,   0.0000000,   6.0907513, ]
- [  6.0907513,   6.0907513,   0.0000000, ]
lattice_lengths: [   8.61362,    8.61362,    8.61362, ]
lattice_angles: [ 60.000,  60.000,  60.000, ] # degrees, (23, 13, 12)
lattice_volume:   4.5190027E+02
convergence: {deltae: -1.137E-13, res2:  4.244E-18, residm:  8.441E-23, diffor: null, }
etotal    :  -1.56994656E+02
entropy   :   0.00000000E+00
fermie    :   1.55777653E-01
cartesian_stress_tensor: # hartree/bohr^3
- [  3.35470404E-09,   0.00000000E+00,   0.00000000E+00, ]
- [  0.00000000E+00,   3.35470404E-09,   0.00000000E+00, ]
- [  0.00000000E+00,   0.00000000E+00,   3.35470404E-09, ]
pressure_GPa:  -9.8699E-05
xred      :
- [  0.0000E+00,   0.0000E+00,   0.0000E+00, In]
- [  2.5000E-01,   2.5000E-01,   2.5000E-01, Sb]
cartesian_forces: # hartree/bohr
- [ -1.72690442E-31,  -1.72690442E-31,   5.18071326E-31, ]
- [  1.72690442E-31,   1.72690442E-31,  -5.18071326E-31, ]
force_length_stats: {min:   5.72749401E-31, max:   5.72749401E-31, mean:   5.72749401E-31, }
...

 Integrated electronic density in atomic spheres:
 ------------------------------------------------
 Atom  Sphere_radius  Integrated_density
    1        2.00000          9.94123428
    2        2.00000         11.23875828
================================================================================

 ----iterations are completed or convergence reached----

 Mean square residual over all n,k,spin=   50.030E-24; max=  84.408E-24
 reduced coordinates (array xred) for    2 atoms
       0.000000000000      0.000000000000      0.000000000000
       0.250000000000      0.250000000000      0.250000000000
 rms dE/dt=  2.9750E-30; max dE/dt=  4.2073E-30; dE/dt below (all hartree)
    1      -0.000000000000     -0.000000000000      0.000000000000
    2       0.000000000000      0.000000000000      0.000000000000

 cartesian coordinates (angstrom) at end:
    1      0.00000000000000     0.00000000000000     0.00000000000000
    2      1.61154339536474     1.61154339536474     1.61154339536474

 cartesian forces (hartree/bohr) at end:
    1     -0.00000000000000    -0.00000000000000     0.00000000000000
    2      0.00000000000000     0.00000000000000    -0.00000000000000
 frms,max,avg= 3.3067702E-31 5.1807133E-31   0.000E+00  0.000E+00  0.000E+00 h/b

 cartesian forces (eV/Angstrom) at end:
    1     -0.00000000000000    -0.00000000000000     0.00000000000000
    2      0.00000000000000     0.00000000000000    -0.00000000000000
 frms,max,avg= 1.7004095E-29 2.6640296E-29   0.000E+00  0.000E+00  0.000E+00 e/A
 length scales= 12.181502674000 12.181502674000 12.181502674000 bohr
              =  6.446173581459  6.446173581459  6.446173581459 angstroms
 prteigrs : about to open file NLO_1o_DS1_EIG
 Fermi (or HOMO) energy (hartree) =   0.15578   Average Vxc (hartree)=  -0.34921
 Eigenvalues (hartree) for nkpt=  10  k points:
 kpt#   1, nband= 14, wtk=  0.09375, kpt= -0.1250 -0.2500  0.0000 (reduced coord)
  -0.88612   -0.88608   -0.88608   -0.88544   -0.88542   -0.37411   -0.37247   -0.37242
  -0.36983   -0.36959   -0.21786    0.04067    0.12508    0.12673
 prteigrs : prtvol=0 or 1, do not print more k-points.


--- !EnergyTerms
iteration_state     : {dtset: 1, }
comment             : Components of total free energy in Hartree
kinetic             :  9.46613542641418E+01
hartree             :  4.38865536675496E+01
xc                  : -4.21261132037129E+01
Ewald energy        : -8.69839601166338E+01
psp_core            :  3.20974295623734E+00
local_psp           : -1.35603466079513E+02
non_local_psp       : -3.40387679679507E+01
total_energy        : -1.56994656479882E+02
total_energy_eV     : -4.27204186144289E+03
band_energy         : -1.26177960195944E+01
...


 Cartesian components of stress tensor (hartree/bohr^3)
  sigma(1 1)=  3.35470404E-09  sigma(3 2)=  0.00000000E+00
  sigma(2 2)=  3.35470404E-09  sigma(3 1)=  0.00000000E+00
  sigma(3 3)=  3.35470404E-09  sigma(2 1)=  0.00000000E+00

-Cartesian components of stress tensor (GPa)         [Pressure= -9.8699E-05 GPa]
- sigma(1 1)=  9.86987837E-05  sigma(3 2)=  0.00000000E+00
- sigma(2 2)=  9.86987837E-05  sigma(3 1)=  0.00000000E+00
- sigma(3 3)=  9.86987837E-05  sigma(2 1)=  0.00000000E+00

================================================================================
== DATASET  2 ==================================================================
-   mpi_nproc: 8, omp_nthreads: 8 (-1 if OMP is not activated)


--- !DatasetInfo
iteration_state: {dtset: 2, }
dimensions: {natom: 2, nkpt: 128, mband: 14, nsppol: 1, nspinor: 1, nspden: 1, mpw: 6823, }
cutoff_energies: {ecut:  42.0, pawecutdg:  -1.0, }
electrons: {nelect:   2.80000000E+01, charge:   0.00000000E+00, occopt:   1.00000000E+00, tsmear:   1.00000000E-02, }
meta: {optdriver: 0, ionmov: 0, optcell: 0, iscf: -2, paral_kgb: 0, }
...

 mkfilename : getwfk/=0, take file _WFK from output of DATASET   1.

 mkfilename : getden/=0, take file _DEN from output of DATASET   1.

 Real(R)+Recip(G) space primitive vectors, cartesian coordinates (Bohr,Bohr^-1):
 R(1)=  0.0000000  6.0907513  6.0907513  G(1)= -0.0820917  0.0820917  0.0820917
 R(2)=  6.0907513  0.0000000  6.0907513  G(2)=  0.0820917 -0.0820917  0.0820917
 R(3)=  6.0907513  6.0907513  0.0000000  G(3)=  0.0820917  0.0820917 -0.0820917
 Unit cell volume ucvol=  4.5190027E+02 bohr^3
 Angles (23,13,12)=  6.00000000E+01  6.00000000E+01  6.00000000E+01 degrees

 getcut: wavevector=  0.0000  0.0000  0.0000  ngfft=  54  54  54
         ecut(hartree)=     46.305   => boxcut(ratio)=   2.04728
--------------------------------------------------------------------------------

-inwffil : will read wavefunctions from disk file NLO_1o_DS1_WFK

================================================================================
 prteigrs : about to open file NLO_1o_DS2_EIG
 Non-SCF case, kpt    1 ( -0.12500 -0.25000  0.00000), residuals and eigenvalues=
  4.89E-23  4.15E-23  4.13E-23  6.08E-23  5.53E-23  9.27E-23  3.64E-23  3.45E-23
  6.36E-23  4.12E-23  3.00E-23  4.73E-23  3.56E-23  5.38E-23
 -8.8612E-01 -8.8608E-01 -8.8608E-01 -8.8544E-01 -8.8542E-01 -3.7411E-01
 -3.7247E-01 -3.7242E-01 -3.6983E-01 -3.6959E-01 -2.1786E-01  4.0666E-02
  1.2508E-01  1.2673E-01
 prteigrs : prtvol=0 or 1, do not print more k-points.



--- !ResultsGS
iteration_state: {dtset: 2, }
comment   : Summary of ground state results
lattice_vectors:
- [  0.0000000,   6.0907513,   6.0907513, ]
- [  6.0907513,   0.0000000,   6.0907513, ]
- [  6.0907513,   6.0907513,   0.0000000, ]
lattice_lengths: [   8.61362,    8.61362,    8.61362, ]
lattice_angles: [ 60.000,  60.000,  60.000, ] # degrees, (23, 13, 12)
lattice_volume:   4.5190027E+02
convergence: {deltae:  0.000E+00, res2:  0.000E+00, residm:  9.918E-23, diffor:  0.000E+00, }
etotal    :  -1.56994656E+02
entropy   :   0.00000000E+00
fermie    :   1.55777653E-01
cartesian_stress_tensor: null
pressure_GPa: null
xred      :
- [  0.0000E+00,   0.0000E+00,   0.0000E+00, In]
- [  2.5000E-01,   2.5000E-01,   2.5000E-01, Sb]
cartesian_forces: null
force_length_stats: {min: null, max: null, mean: null, }
...

 Integrated electronic density in atomic spheres:
 ------------------------------------------------
 Atom  Sphere_radius  Integrated_density
    1        2.00000          9.94123428
    2        2.00000         11.23875828
================================================================================

 ----iterations are completed or convergence reached----

 Mean square residual over all n,k,spin=   16.360E-24; max=  99.179E-24
 reduced coordinates (array xred) for    2 atoms
       0.000000000000      0.000000000000      0.000000000000
       0.250000000000      0.250000000000      0.250000000000

 cartesian coordinates (angstrom) at end:
    1      0.00000000000000     0.00000000000000     0.00000000000000
    2      1.61154339536474     1.61154339536474     1.61154339536474
 length scales= 12.181502674000 12.181502674000 12.181502674000 bohr
              =  6.446173581459  6.446173581459  6.446173581459 angstroms
 prteigrs : about to open file NLO_1o_DS2_EIG
 Eigenvalues (hartree) for nkpt= 128  k points:
 kpt#   1, nband= 14, wtk=  0.00781, kpt= -0.1250 -0.2500  0.0000 (reduced coord)
  -0.88612   -0.88608   -0.88608   -0.88544   -0.88542   -0.37411   -0.37247   -0.37242
  -0.36983   -0.36959   -0.21786    0.04067    0.12508    0.12673
 prteigrs : prtvol=0 or 1, do not print more k-points.


================================================================================
== DATASET  3 ==================================================================
-   mpi_nproc: 8, omp_nthreads: 8 (-1 if OMP is not activated)


--- !DatasetInfo
iteration_state: {dtset: 3, }
dimensions: {natom: 2, nkpt: 128, mband: 14, nsppol: 1, nspinor: 1, nspden: 1, mpw: 6823, }
cutoff_energies: {ecut:  42.0, pawecutdg:  -1.0, }
electrons: {nelect:   2.80000000E+01, charge:   0.00000000E+00, occopt:   1.00000000E+00, tsmear:   1.00000000E-02, }
meta: {optdriver: 1, rfelfd: 2, }
...

 mkfilename : getwfk/=0, take file _WFK from output of DATASET   2.

 Real(R)+Recip(G) space primitive vectors, cartesian coordinates (Bohr,Bohr^-1):
 R(1)=  0.0000000  6.0907513  6.0907513  G(1)= -0.0820917  0.0820917  0.0820917
 R(2)=  6.0907513  0.0000000  6.0907513  G(2)=  0.0820917 -0.0820917  0.0820917
 R(3)=  6.0907513  6.0907513  0.0000000  G(3)=  0.0820917  0.0820917 -0.0820917
 Unit cell volume ucvol=  4.5190027E+02 bohr^3
 Angles (23,13,12)=  6.00000000E+01  6.00000000E+01  6.00000000E+01 degrees

 getcut: wavevector=  0.0000  0.0000  0.0000  ngfft=  54  54  54
         ecut(hartree)=     46.305   => boxcut(ratio)=   2.04728
--------------------------------------------------------------------------------

-inwffil : will read wavefunctions from disk file NLO_1o_DS2_WFK

 ==>  initialize data related to q vector <== 

 The list of irreducible perturbations for this q vector is:
    1)    idir= 1    ipert=   3
    2)    idir= 2    ipert=   3
    3)    idir= 3    ipert=   3

================================================================================

--------------------------------------------------------------------------------
 Perturbation wavevector (in red.coord.)   0.000000  0.000000  0.000000
 Perturbation : derivative vs k along direction   1

 dfpt_looppert : COMMENT -
  In a d/dk calculation, iscf is set to -3 automatically.
 The set of symmetries contains only one element for this perturbation.
 symkpt : not enough symmetry to change the number of k points.

--------------------------------------------------------------------------------

-inwffil : will read wavefunctions from disk file NLO_1o_DS2_WFK
--------------------------------------------------------------------------------

 Initialisation of the first-order wave-functions :
  ireadwf=   0

--- !BeginCycle
iteration_state: {dtset: 3, }
solver: {iscf: 7, nstep: 100, nline: 4, wfoptalg: 0, }
tolerances: {tolwfr: 1.00E-22, }
...

     iter   2DEtotal(Ha)        deltaE(Ha) residm    vres2
-ETOT  1  -49.290677030971     -4.929E+01 1.642E+00 0.000E+00
 ETOT  2  -49.497398223307     -2.067E-01 3.035E-01 0.000E+00
 ETOT  3  -49.517414114709     -2.002E-02 7.162E-02 0.000E+00
 ETOT  4  -49.520813596947     -3.399E-03 1.479E-02 0.000E+00
 ETOT  5  -49.521504677485     -6.911E-04 3.704E-03 0.000E+00
 ETOT  6  -49.521660952323     -1.563E-04 7.951E-04 0.000E+00
 ETOT  7  -49.521698116526     -3.716E-05 2.167E-04 0.000E+00
 ETOT  8  -49.521707174148     -9.058E-06 4.831E-05 0.000E+00
 ETOT  9  -49.521709406831     -2.233E-06 1.338E-05 0.000E+00
 ETOT 10  -49.521709960481     -5.537E-07 2.997E-06 0.000E+00
 ETOT 11  -49.521710098225     -1.377E-07 8.313E-07 0.000E+00
 ETOT 12  -49.521710132562     -3.434E-08 1.865E-07 0.000E+00
 ETOT 13  -49.521710141132     -8.570E-09 5.176E-08 0.000E+00
 ETOT 14  -49.521710143273     -2.141E-09 1.163E-08 0.000E+00
 ETOT 15  -49.521710143808     -5.352E-10 3.227E-09 0.000E+00
 ETOT 16  -49.521710143942     -1.338E-10 7.259E-10 0.000E+00
 ETOT 17  -49.521710143975     -3.342E-11 2.013E-10 0.000E+00
 ETOT 18  -49.521710143984     -8.434E-12 4.535E-11 0.000E+00
 ETOT 19  -49.521710143986     -2.125E-12 1.257E-11 0.000E+00
 ETOT 20  -49.521710143986     -4.547E-13 2.836E-12 0.000E+00
 ETOT 21  -49.521710143986     -2.416E-13 7.856E-13 0.000E+00
 ETOT 22  -49.521710143986     -2.842E-14 1.774E-13 0.000E+00
 ETOT 23  -49.521710143986     -9.237E-14 4.912E-14 0.000E+00
 ETOT 24  -49.521710143986      3.197E-13 1.111E-14 0.000E+00
 ETOT 25  -49.521710143986     -2.203E-13 3.073E-15 0.000E+00
 ETOT 26  -49.521710143986      8.527E-14 6.962E-16 0.000E+00
 ETOT 27  -49.521710143986      8.527E-14 1.924E-16 0.000E+00
 ETOT 28  -49.521710143986     -7.105E-15 4.365E-17 0.000E+00
 ETOT 29  -49.521710143986      1.421E-14 1.205E-17 0.000E+00
 ETOT 30  -49.521710143986     -1.137E-13 2.738E-18 0.000E+00
 ETOT 31  -49.521710143986      1.421E-14 7.555E-19 0.000E+00
 ETOT 32  -49.521710143986      7.105E-14 1.719E-19 0.000E+00
 ETOT 33  -49.521710143986     -9.948E-14 4.738E-20 0.000E+00
 ETOT 34  -49.521710143986     -6.395E-14 1.080E-20 0.000E+00
 ETOT 35  -49.521710143986      4.974E-14 2.971E-21 0.000E+00
 ETOT 36  -49.521710143986      4.974E-14 6.785E-22 0.000E+00
 ETOT 37  -49.521710143986     -9.948E-14 1.867E-22 0.000E+00
 ETOT 38  -49.521710143986      5.684E-14 9.996E-23 0.000E+00

 At SCF step   38   max residual=  1.00E-22 < tolwfr=  1.00E-22 =>converged.
================================================================================

 ----iterations are completed or convergence reached----

 Mean square residual over all n,k,spin=   59.084E-24; max=  99.962E-24
 dfpt_looppert : ek2=    4.4695859039E+01
          f-sum rule ratio=    1.0098744083E+00 (note : ecutsm/=0)
 prteigrs : about to open file NLO_1t_1WF1_EIG
 Expectation of eigenvalue derivatives (hartree) for nkpt= 128  k points:
  (in case of degenerate eigenvalues, averaged derivative)
 kpt#   1, nband= 14, wtk=  0.00781, kpt= -0.1250 -0.2500  0.0000 (reduced coord)
   0.00017   -0.00014   -0.00010    0.00009   -0.00011    0.00389   -0.00266   -0.00212
   0.00153   -0.00066   -0.02911   -0.01670    0.18107    0.14331
 prteigrs : prtvol=0 or 1, do not print more k-points.


 Eight components of 2nd-order total energy (hartree) are
 1,2,3: 0th-order hamiltonian combined with 1st-order wavefunctions
     kin0=   8.81966579E+01 eigvalue=   2.16765236E+00  local=  -6.43530967E+01
 4,5,6: 1st-order hamiltonian combined with 1st and 0th-order wfs
     kin1=  -4.51372042E+01  Hartree=   0.00000000E+00     xc=   0.00000000E+00
 7,8,9: eventually, occupation + non-local contributions
    edocc=   0.00000000E+00     enl0=   2.35104965E+01   enl1=  -5.39062161E+01
 1-9 gives the relaxation energy (to be shifted if some occ is /=2.0)
   erelax=  -4.95217101E+01
  No Ewald or frozen-wf contrib.: the relaxation energy is the total one
 2DEtotal=   -0.4952171014E+02 Ha. Also 2DEtotal=   -0.134755426413E+04 eV
    (  non-var. 2DEtotal :   -4.9521710144E+01 Ha)

--------------------------------------------------------------------------------
 Perturbation wavevector (in red.coord.)   0.000000  0.000000  0.000000
 Perturbation : derivative vs k along direction   2
 The set of symmetries contains only one element for this perturbation.
 symkpt : not enough symmetry to change the number of k points.

--------------------------------------------------------------------------------

-inwffil : will read wavefunctions from disk file NLO_1o_DS2_WFK
--------------------------------------------------------------------------------

 Initialisation of the first-order wave-functions :
  ireadwf=   0

--- !BeginCycle
iteration_state: {dtset: 3, }
solver: {iscf: 7, nstep: 100, nline: 4, wfoptalg: 0, }
tolerances: {tolwfr: 1.00E-22, }
...

     iter   2DEtotal(Ha)        deltaE(Ha) residm    vres2
-ETOT  1  -49.284641491806     -4.928E+01 1.681E+00 0.000E+00
 ETOT  2  -49.495882167104     -2.112E-01 2.851E-01 0.000E+00
 ETOT  3  -49.517075398000     -2.119E-02 6.319E-02 0.000E+00
 ETOT  4  -49.520731405164     -3.656E-03 1.371E-02 0.000E+00
 ETOT  5  -49.521486859229     -7.555E-04 3.240E-03 0.000E+00
 ETOT  6  -49.521657123973     -1.703E-04 7.457E-04 0.000E+00
 ETOT  7  -49.521697312463     -4.019E-05 1.902E-04 0.000E+00
 ETOT  8  -49.521707006066     -9.694E-06 4.554E-05 0.000E+00
 ETOT  9  -49.521709372109     -2.366E-06 1.178E-05 0.000E+00
 ETOT 10  -49.521709953454     -5.813E-07 2.836E-06 0.000E+00
 ETOT 11  -49.521710096919     -1.435E-07 7.349E-07 0.000E+00
 ETOT 12  -49.521710132422     -3.550E-08 1.772E-07 0.000E+00
 ETOT 13  -49.521710141227     -8.805E-09 4.595E-08 0.000E+00
 ETOT 14  -49.521710143414     -2.187E-09 1.109E-08 0.000E+00
 ETOT 15  -49.521710143957     -5.438E-10 2.876E-09 0.000E+00
 ETOT 16  -49.521710144093     -1.354E-10 6.949E-10 0.000E+00
 ETOT 17  -49.521710144127     -3.381E-11 1.802E-10 0.000E+00
 ETOT 18  -49.521710144135     -8.278E-12 4.358E-11 0.000E+00
 ETOT 19  -49.521710144137     -2.117E-12 1.130E-11 0.000E+00
 ETOT 20  -49.521710144138     -4.619E-13 2.735E-12 0.000E+00
 ETOT 21  -49.521710144138     -1.066E-13 7.085E-13 0.000E+00
 ETOT 22  -49.521710144138     -4.974E-14 1.717E-13 0.000E+00
 ETOT 23  -49.521710144138      2.132E-14 4.446E-14 0.000E+00
 ETOT 24  -49.521710144138     -7.105E-14 1.079E-14 0.000E+00
 ETOT 25  -49.521710144138     -1.421E-14 2.792E-15 0.000E+00
 ETOT 26  -49.521710144138     -2.842E-14 6.785E-16 0.000E+00
 ETOT 27  -49.521710144138      2.842E-14 1.754E-16 0.000E+00
 ETOT 28  -49.521710144138     -1.137E-13 4.268E-17 0.000E+00
 ETOT 29  -49.521710144138      5.684E-14 1.103E-17 0.000E+00
 ETOT 30  -49.521710144138      1.421E-14 2.687E-18 0.000E+00
 ETOT 31  -49.521710144138      7.105E-15 6.935E-19 0.000E+00
 ETOT 32  -49.521710144138      6.395E-14 1.692E-19 0.000E+00
 ETOT 33  -49.521710144138      0.000E+00 4.364E-20 0.000E+00
 ETOT 34  -49.521710144138     -2.842E-14 1.066E-20 0.000E+00
 ETOT 35  -49.521710144138      8.527E-14 2.748E-21 0.000E+00
 ETOT 36  -49.521710144138     -4.263E-14 6.721E-22 0.000E+00
 ETOT 37  -49.521710144138      7.105E-15 1.731E-22 0.000E+00
 ETOT 38  -49.521710144138     -1.421E-14 9.996E-23 0.000E+00

 At SCF step   38   max residual=  1.00E-22 < tolwfr=  1.00E-22 =>converged.
================================================================================

 ----iterations are completed or convergence reached----

 Mean square residual over all n,k,spin=   59.150E-24; max=  99.960E-24
 dfpt_looppert : ek2=    4.4695859039E+01
          f-sum rule ratio=    1.0098744083E+00 (note : ecutsm/=0)
 prteigrs : about to open file NLO_1t_1WF1_EIG
 Expectation of eigenvalue derivatives (hartree) for nkpt= 128  k points:
  (in case of degenerate eigenvalues, averaged derivative)
 kpt#   1, nband= 14, wtk=  0.00781, kpt= -0.1250 -0.2500  0.0000 (reduced coord)
  -0.00002   -0.00009   -0.00013   -0.00004   -0.00008    0.00524   -0.00201   -0.00257
   0.00042   -0.00020   -0.12933    0.44226    0.15849    0.10775
 prteigrs : prtvol=0 or 1, do not print more k-points.


 Eight components of 2nd-order total energy (hartree) are
 1,2,3: 0th-order hamiltonian combined with 1st-order wavefunctions
     kin0=   8.81966579E+01 eigvalue=   2.16765237E+00  local=  -6.43530967E+01
 4,5,6: 1st-order hamiltonian combined with 1st and 0th-order wfs
     kin1=  -4.51372042E+01  Hartree=   0.00000000E+00     xc=   0.00000000E+00
 7,8,9: eventually, occupation + non-local contributions
    edocc=   0.00000000E+00     enl0=   2.35104965E+01   enl1=  -5.39062161E+01
 1-9 gives the relaxation energy (to be shifted if some occ is /=2.0)
   erelax=  -4.95217101E+01
  No Ewald or frozen-wf contrib.: the relaxation energy is the total one
 2DEtotal=   -0.4952171014E+02 Ha. Also 2DEtotal=   -0.134755426414E+04 eV
    (  non-var. 2DEtotal :   -4.9521710144E+01 Ha)

--------------------------------------------------------------------------------
 Perturbation wavevector (in red.coord.)   0.000000  0.000000  0.000000
 Perturbation : derivative vs k along direction   3
 The set of symmetries contains only one element for this perturbation.
 symkpt : not enough symmetry to change the number of k points.

--------------------------------------------------------------------------------

-inwffil : will read wavefunctions from disk file NLO_1o_DS2_WFK
--------------------------------------------------------------------------------

 Initialisation of the first-order wave-functions :
  ireadwf=   0

--- !BeginCycle
iteration_state: {dtset: 3, }
solver: {iscf: 7, nstep: 100, nline: 4, wfoptalg: 0, }
tolerances: {tolwfr: 1.00E-22, }
...

     iter   2DEtotal(Ha)        deltaE(Ha) residm    vres2
-ETOT  1  -49.290674266187     -4.929E+01 1.642E+00 0.000E+00
 ETOT  2  -49.497397845826     -2.067E-01 3.035E-01 0.000E+00
 ETOT  3  -49.517414076366     -2.002E-02 7.162E-02 0.000E+00
 ETOT  4  -49.520813595081     -3.400E-03 1.479E-02 0.000E+00
 ETOT  5  -49.521504678487     -6.911E-04 3.704E-03 0.000E+00
 ETOT  6  -49.521660952987     -1.563E-04 7.951E-04 0.000E+00
 ETOT  7  -49.521698116945     -3.716E-05 2.167E-04 0.000E+00
 ETOT  8  -49.521707174483     -9.058E-06 4.831E-05 0.000E+00
 ETOT  9  -49.521709407142     -2.233E-06 1.338E-05 0.000E+00
 ETOT 10  -49.521709960786     -5.536E-07 2.997E-06 0.000E+00
 ETOT 11  -49.521710098528     -1.377E-07 8.313E-07 0.000E+00
 ETOT 12  -49.521710132864     -3.434E-08 1.865E-07 0.000E+00
 ETOT 13  -49.521710141435     -8.570E-09 5.176E-08 0.000E+00
 ETOT 14  -49.521710143576     -2.141E-09 1.163E-08 0.000E+00
 ETOT 15  -49.521710144111     -5.352E-10 3.227E-09 0.000E+00
 ETOT 16  -49.521710144244     -1.337E-10 7.259E-10 0.000E+00
 ETOT 17  -49.521710144278     -3.360E-11 2.013E-10 0.000E+00
 ETOT 18  -49.521710144286     -8.257E-12 4.535E-11 0.000E+00
 ETOT 19  -49.521710144288     -2.146E-12 1.257E-11 0.000E+00
 ETOT 20  -49.521710144289     -5.684E-13 2.836E-12 0.000E+00
 ETOT 21  -49.521710144289     -7.105E-14 7.855E-13 0.000E+00
 ETOT 22  -49.521710144289     -7.105E-14 1.774E-13 0.000E+00
 ETOT 23  -49.521710144289      1.421E-14 4.912E-14 0.000E+00
 ETOT 24  -49.521710144289      2.132E-14 1.111E-14 0.000E+00
 ETOT 25  -49.521710144289      2.132E-14 3.073E-15 0.000E+00
 ETOT 26  -49.521710144289      1.137E-13 6.962E-16 0.000E+00
 ETOT 27  -49.521710144289     -5.684E-14 1.924E-16 0.000E+00
 ETOT 28  -49.521710144289      2.842E-14 4.365E-17 0.000E+00
 ETOT 29  -49.521710144289     -1.279E-13 1.205E-17 0.000E+00
 ETOT 30  -49.521710144289      9.237E-14 2.738E-18 0.000E+00
 ETOT 31  -49.521710144289      3.553E-14 7.554E-19 0.000E+00
 ETOT 32  -49.521710144289     -1.208E-13 1.719E-19 0.000E+00
 ETOT 33  -49.521710144289      7.105E-14 4.737E-20 0.000E+00
 ETOT 34  -49.521710144289      3.553E-14 1.079E-20 0.000E+00
 ETOT 35  -49.521710144289      2.132E-14 2.972E-21 0.000E+00
 ETOT 36  -49.521710144289     -2.132E-14 6.784E-22 0.000E+00
 ETOT 37  -49.521710144289     -9.948E-14 1.865E-22 0.000E+00
 ETOT 38  -49.521710144289      3.553E-14 9.997E-23 0.000E+00

 At SCF step   38   max residual=  1.00E-22 < tolwfr=  1.00E-22 =>converged.
================================================================================

 ----iterations are completed or convergence reached----

 Mean square residual over all n,k,spin=   59.084E-24; max=  99.969E-24
 dfpt_looppert : ek2=    4.4695859039E+01
          f-sum rule ratio=    1.0098744083E+00 (note : ecutsm/=0)
 prteigrs : about to open file NLO_1t_1WF1_EIG
 Expectation of eigenvalue derivatives (hartree) for nkpt= 128  k points:
  (in case of degenerate eigenvalues, averaged derivative)
 kpt#   1, nband= 14, wtk=  0.00781, kpt= -0.1250 -0.2500  0.0000 (reduced coord)
  -0.00007    0.00011    0.00012   -0.00003    0.00010   -0.00457    0.00233    0.00234
  -0.00097    0.00043    0.07922   -0.21278   -0.16978   -0.12553
 prteigrs : prtvol=0 or 1, do not print more k-points.


 Eight components of 2nd-order total energy (hartree) are
 1,2,3: 0th-order hamiltonian combined with 1st-order wavefunctions
     kin0=   8.81966579E+01 eigvalue=   2.16765237E+00  local=  -6.43530967E+01
 4,5,6: 1st-order hamiltonian combined with 1st and 0th-order wfs
     kin1=  -4.51372042E+01  Hartree=   0.00000000E+00     xc=   0.00000000E+00
 7,8,9: eventually, occupation + non-local contributions
    edocc=   0.00000000E+00     enl0=   2.35104965E+01   enl1=  -5.39062161E+01
 1-9 gives the relaxation energy (to be shifted if some occ is /=2.0)
   erelax=  -4.95217101E+01
  No Ewald or frozen-wf contrib.: the relaxation energy is the total one
 2DEtotal=   -0.4952171014E+02 Ha. Also 2DEtotal=   -0.134755426414E+04 eV
    (  non-var. 2DEtotal :   -4.9521710144E+01 Ha)
================================================================================

[...]
P          mkqmem6         16
P          mkqmem7         16
P          mk1mem1          2
P          mk1mem2         16
P          mk1mem3         16
P          mk1mem4         16
P          mk1mem5         16
P          mk1mem6         16
P          mk1mem7         16
            natom           2
            nband1         14
            nband2         14
            nband3         14
            nband4         14
            nband5         14
            nband6         14
            nband7         14
           ndtset           7
            ngfft          54      54      54
             nkpt1         10
             nkpt2        128
             nkpt3        128
             nkpt4        128
             nkpt5        128
             nkpt6        128
             nkpt7        128
            nstep         100
             nsym          24
           ntypat           2
              occ1     2.000000  2.000000  2.000000  2.000000  2.000000  2.000000
                       2.000000  2.000000  2.000000  2.000000  2.000000  2.000000
                       2.000000  2.000000
              occ3     2.000000  2.000000  2.000000  2.000000  2.000000  2.000000
                       2.000000  2.000000  2.000000  2.000000  2.000000  2.000000
                       2.000000  2.000000
              occ4     2.000000  2.000000  2.000000  2.000000  2.000000  2.000000
                       2.000000  2.000000  2.000000  2.000000  2.000000  2.000000
                       2.000000  2.000000
              occ5     2.000000  2.000000  2.000000  2.000000  2.000000  2.000000
                       2.000000  2.000000  2.000000  2.000000  2.000000  2.000000
                       2.000000  2.000000
              occ6     2.000000  2.000000  2.000000  2.000000  2.000000  2.000000
                       2.000000  2.000000  2.000000  2.000000  2.000000  2.000000
                       2.000000  2.000000
              occ7     2.000000  2.000000  2.000000  2.000000  2.000000  2.000000
                       2.000000  2.000000  2.000000  2.000000  2.000000  2.000000
                       2.000000  2.000000
        optdriver1          0
        optdriver2          0
        optdriver3          1
        optdriver4          1
        optdriver5          1
        optdriver6          1
        optdriver7          5
          prepanl1          0
          prepanl2          0
          prepanl3          0
          prepanl4          1
          prepanl5          1
          prepanl6          1
          prepanl7          0
          rfatpol1          1       1
          rfatpol2          1       1
          rfatpol3          1       1
          rfatpol4          1       2
          rfatpol5          1       1
          rfatpol6          1       1
          rfatpol7          1       1
            rfdir1          0       0       0
            rfdir2          0       0       0
            rfdir3          1       1       1
            rfdir4          1       1       1
            rfdir5          1       1       1
            rfdir6          1       1       1
            rfdir7          0       0       0
           rfelfd1          0
           rfelfd2          0
           rfelfd3          2
           rfelfd4          3
           rfelfd5          0
           rfelfd6          0
           rfelfd7          0
           rfphon1          0
           rfphon2          0
           rfphon3          0
           rfphon4          1
           rfphon5          0
           rfphon6          0
           rfphon7          0
           rfstrs1          0
           rfstrs2          0
           rfstrs3          0
           rfstrs4          3
           rfstrs5          0
           rfstrs6          0
           rfstrs7          0
         rf2_dkdk1          0
         rf2_dkdk2          0
         rf2_dkdk3          0
         rf2_dkdk4          0
         rf2_dkdk5          1
         rf2_dkdk6          0
         rf2_dkdk7          0
         rf2_dkde1          0
         rf2_dkde2          0
         rf2_dkde3          0
         rf2_dkde4          0
         rf2_dkde5          0
         rf2_dkde6          1
         rf2_dkde7          0
    rf2_pert1_dir1          0       0       0
    rf2_pert1_dir2          0       0       0
    rf2_pert1_dir3          0       0       0
    rf2_pert1_dir4          0       0       0
    rf2_pert1_dir5          1       1       1
    rf2_pert1_dir6          1       1       1
    rf2_pert1_dir7          0       0       0
    rf2_pert2_dir1          0       0       0
    rf2_pert2_dir2          0       0       0
    rf2_pert2_dir3          0       0       0
    rf2_pert2_dir4          0       0       0
    rf2_pert2_dir5          1       1       1
    rf2_pert2_dir6          1       1       1
    rf2_pert2_dir7          0       0       0
            rprim      0.0000000000E+00  5.0000000000E-01  5.0000000000E-01
                       5.0000000000E-01  0.0000000000E+00  5.0000000000E-01
                       5.0000000000E-01  5.0000000000E-01  0.0000000000E+00
           shiftk      5.00000000E-01  5.00000000E-01  5.00000000E-01
          spgroup         216
           strten1     3.3547040363E-09  3.3547040363E-09  3.3547040354E-09
                       0.0000000000E+00  0.0000000000E+00  0.0000000000E+00
           strten3     0.0000000000E+00  0.0000000000E+00  0.0000000000E+00
                       0.0000000000E+00  0.0000000000E+00  0.0000000000E+00
           strten4     0.0000000000E+00  0.0000000000E+00  0.0000000000E+00
                       0.0000000000E+00  0.0000000000E+00  0.0000000000E+00
           strten5     0.0000000000E+00  0.0000000000E+00  0.0000000000E+00
                       0.0000000000E+00  0.0000000000E+00  0.0000000000E+00
           strten6     0.0000000000E+00  0.0000000000E+00  0.0000000000E+00
                       0.0000000000E+00  0.0000000000E+00  0.0000000000E+00
           strten7     0.0000000000E+00  0.0000000000E+00  0.0000000000E+00
                       0.0000000000E+00  0.0000000000E+00  0.0000000000E+00
           symrel      1  0  0   0  1  0   0  0  1       0 -1  1   0 -1  0   1 -1  0
                      -1  0  0  -1  0  1  -1  1  0       0  1 -1   1  0 -1   0  0 -1
                      -1  0  0  -1  1  0  -1  0  1       0 -1  1   1 -1  0   0 -1  0
                       1  0  0   0  0  1   0  1  0       0  1 -1   0  0 -1   1  0 -1
                      -1  0  1  -1  1  0  -1  0  0       0 -1  0   1 -1  0   0 -1  1
                       1  0 -1   0  0 -1   0  1 -1       0  1  0   0  0  1   1  0  0
                       1  0 -1   0  1 -1   0  0 -1       0 -1  0   0 -1  1   1 -1  0
                      -1  0  1  -1  0  0  -1  1  0       0  1  0   1  0  0   0  0  1
                       0  0 -1   0  1 -1   1  0 -1       1 -1  0   0 -1  1   0 -1  0
                       0  0  1   1  0  0   0  1  0      -1  1  0  -1  0  0  -1  0  1
                       0  0  1   0  1  0   1  0  0       1 -1  0   0 -1  0   0 -1  1
                       0  0 -1   1  0 -1   0  1 -1      -1  1  0  -1  0  1  -1  0  0
           tolvrs1     0.00000000E+00
           tolvrs2     0.00000000E+00
           tolvrs3     0.00000000E+00
           tolvrs4     1.00000000E-12
           tolvrs5     0.00000000E+00
           tolvrs6     0.00000000E+00
           tolvrs7     0.00000000E+00
           tolwfr1     1.00000000E-22
           tolwfr2     1.00000000E-22
           tolwfr3     1.00000000E-22
           tolwfr4     0.00000000E+00
           tolwfr5     1.00000000E-22
           tolwfr6     1.00000000E-22
           tolwfr7     0.00000000E+00
            typat      1  2
          usepead1          1
          usepead2          1
          usepead3          1
          usepead4          1
          usepead5          1
          usepead6          1
          usepead7          0
           useylm1          0
           useylm2          0
           useylm3          0
           useylm4          0
           useylm5          1
           useylm6          1
           useylm7          0
              wtk1       0.09375    0.09375    0.09375    0.18750    0.09375    0.09375
                         0.09375    0.18750    0.03125    0.03125
              wtk2       0.00781    0.00781    0.00781    0.00781    0.00781    0.00781
                         0.00781    0.00781    0.00781    0.00781    0.00781    0.00781
                         0.00781    0.00781    0.00781    0.00781    0.00781    0.00781
                         0.00781    0.00781    0.00781    0.00781    0.00781    0.00781
                         0.00781    0.00781    0.00781    0.00781    0.00781    0.00781
                         0.00781    0.00781    0.00781    0.00781    0.00781    0.00781
                         0.00781    0.00781    0.00781    0.00781    0.00781    0.00781
                         0.00781    0.00781    0.00781    0.00781    0.00781    0.00781
                         0.00781    0.00781
              wtk3       0.00781    0.00781    0.00781    0.00781    0.00781    0.00781
                         0.00781    0.00781    0.00781    0.00781    0.00781    0.00781
                         0.00781    0.00781    0.00781    0.00781    0.00781    0.00781
                         0.00781    0.00781    0.00781    0.00781    0.00781    0.00781
                         0.00781    0.00781    0.00781    0.00781    0.00781    0.00781
                         0.00781    0.00781    0.00781    0.00781    0.00781    0.00781
                         0.00781    0.00781    0.00781    0.00781    0.00781    0.00781
                         0.00781    0.00781    0.00781    0.00781    0.00781    0.00781
                         0.00781    0.00781
              wtk4       0.00781    0.00781    0.00781    0.00781    0.00781    0.00781
                         0.00781    0.00781    0.00781    0.00781    0.00781    0.00781
                         0.00781    0.00781    0.00781    0.00781    0.00781    0.00781
                         0.00781    0.00781    0.00781    0.00781    0.00781    0.00781
                         0.00781    0.00781    0.00781    0.00781    0.00781    0.00781
                         0.00781    0.00781    0.00781    0.00781    0.00781    0.00781
                         0.00781    0.00781    0.00781    0.00781    0.00781    0.00781
                         0.00781    0.00781    0.00781    0.00781    0.00781    0.00781
                         0.00781    0.00781
              wtk5       0.00781    0.00781    0.00781    0.00781    0.00781    0.00781
                         0.00781    0.00781    0.00781    0.00781    0.00781    0.00781
                         0.00781    0.00781    0.00781    0.00781    0.00781    0.00781
                         0.00781    0.00781    0.00781    0.00781    0.00781    0.00781
                         0.00781    0.00781    0.00781    0.00781    0.00781    0.00781
                         0.00781    0.00781    0.00781    0.00781    0.00781    0.00781
                         0.00781    0.00781    0.00781    0.00781    0.00781    0.00781
                         0.00781    0.00781    0.00781    0.00781    0.00781    0.00781
                         0.00781    0.00781
              wtk6       0.00781    0.00781    0.00781    0.00781    0.00781    0.00781
                         0.00781    0.00781    0.00781    0.00781    0.00781    0.00781
                         0.00781    0.00781    0.00781    0.00781    0.00781    0.00781
                         0.00781    0.00781    0.00781    0.00781    0.00781    0.00781
                         0.00781    0.00781    0.00781    0.00781    0.00781    0.00781
                         0.00781    0.00781    0.00781    0.00781    0.00781    0.00781
                         0.00781    0.00781    0.00781    0.00781    0.00781    0.00781
                         0.00781    0.00781    0.00781    0.00781    0.00781    0.00781
                         0.00781    0.00781
              wtk7       0.00781    0.00781    0.00781    0.00781    0.00781    0.00781
                         0.00781    0.00781    0.00781    0.00781    0.00781    0.00781
                         0.00781    0.00781    0.00781    0.00781    0.00781    0.00781
                         0.00781    0.00781    0.00781    0.00781    0.00781    0.00781
                         0.00781    0.00781    0.00781    0.00781    0.00781    0.00781
                         0.00781    0.00781    0.00781    0.00781    0.00781    0.00781
                         0.00781    0.00781    0.00781    0.00781    0.00781    0.00781
                         0.00781    0.00781    0.00781    0.00781    0.00781    0.00781
                         0.00781    0.00781
                       outvars : Printing only first  50 k-points.
           xangst      0.0000000000E+00  0.0000000000E+00  0.0000000000E+00
                       1.6115433954E+00  1.6115433954E+00  1.6115433954E+00
            xcart      0.0000000000E+00  0.0000000000E+00  0.0000000000E+00
                       3.0453756685E+00  3.0453756685E+00  3.0453756685E+00
             xred      0.0000000000E+00  0.0000000000E+00  0.0000000000E+00
                       2.5000000000E-01  2.5000000000E-01  2.5000000000E-01
            znucl       49.00000   51.00000

================================================================================


- Timing analysis has been suppressed with timopt=0



================================================================================

 Suggested references for the acknowledgment of ABINIT usage.

 The users of ABINIT have little formal obligations with respect to the ABINIT group
 (those specified in the GNU General Public License, http://www.gnu.org/copyleft/gpl.txt).
 However, it is common practice in the scientific literature,
 to acknowledge the efforts of people that have made the research possible.
 In this spirit, please find below suggested citations of work written by ABINIT developers,
 corresponding to implementations inside of ABINIT that you have used in the present run.
 Note also that it will be of great value to readers of publications presenting these results,
 to read papers enabling them to understand the theoretical formalism and details
 of the ABINIT implementation.
 For information on why they are suggested, see also https://docs.abinit.org/theory/acknowledgments.
-
- [1] Nonlinear optical susceptibilities, Raman efficiencies, and electrooptic tensors
- from first principles density functional theory.
- M. Veithen, X. Gonze, and Ph. Ghosez, Phys. Rev. B 71, 125107 (2005).
- Comment: to be cited for non-linear response calculations, with optdriver=5.
- DOI and bibtex: see https://docs.abinit.org/theory/bibliography/#veithen2005
-
- [2] Metric tensor formulation of strain in density-functional perturbation theory, 
- D. R. Hamann, X. Wu, K. M. Rabe, and D. Vanderbilt, Phys. Rev. B71, 035117 (2005).
- Comment: Non-vanishing rfstrs. Strong suggestion to cite this paper in your publications.
- DOI and bibtex: see https://docs.abinit.org/theory/bibliography/#hamann2005
-
- [3] Libxc: A library of exchange and correlation functionals for density functional theory.
- M.A.L. Marques, M.J.T. Oliveira, T. Burnus, Computer Physics Communications 183, 2227 (2012).
- Comment: to be cited when LibXC is used (negative value of ixc)
- Strong suggestion to cite this paper.
- DOI and bibtex: see https://docs.abinit.org/theory/bibliography/#marques2012
-
- [4] The Abinit project: Impact, environment and recent developments.
- Computer Phys. Comm. 248, 107042 (2020).
- X.Gonze, B. Amadon, G. Antonius, F.Arnardi, L.Baguet, J.-M.Beuken,
- J.Bieder, F.Bottin, J.Bouchet, E.Bousquet, N.Brouwer, F.Bruneval,
- G.Brunin, T.Cavignac, J.-B. Charraud, Wei Chen, M.Cote, S.Cottenier,
- J.Denier, G.Geneste, Ph.Ghosez, M.Giantomassi, Y.Gillet, O.Gingras,
- D.R.Hamann, G.Hautier, Xu He, N.Helbig, N.Holzwarth, Y.Jia, F.Jollet,
- W.Lafargue-Dit-Hauret, K.Lejaeghere, M.A.L.Marques, A.Martin, C.Martins,
- H.P.C. Miranda, F.Naccarato, K. Persson, G.Petretto, V.Planes, Y.Pouillon,
- S.Prokhorenko, F.Ricci, G.-M.Rignanese, A.H.Romero, M.M.Schmitt, M.Torrent,
- M.J.van Setten, B.Van Troeye, M.J.Verstraete, G.Zerah and J.W.Zwanzig
- Comment: the fifth generic paper describing the ABINIT project.
- Note that a version of this paper, that is not formatted for Computer Phys. Comm. 
- is available at https://www.abinit.org/sites/default/files/ABINIT20.pdf .
- The licence allows the authors to put it on the Web.
- DOI and bibtex: see https://docs.abinit.org/theory/bibliography/#gonze2020
-
- [5] First-principles responses of solids to atomic displacements and homogeneous electric fields:,
- implementation of a conjugate-gradient algorithm. X. Gonze, Phys. Rev. B55, 10337 (1997).
- Comment: Non-vanishing rfphon and/or rfelfd, in the norm-conserving case.
- DOI and bibtex: see https://docs.abinit.org/theory/bibliography/#gonze1997
-
- [6] Dynamical matrices, Born effective charges, dielectric permittivity tensors, and ,
- interatomic force constants from density-functional perturbation theory,
- X. Gonze and C. Lee, Phys. Rev. B55, 10355 (1997).
- Comment: Non-vanishing rfphon and/or rfelfd, in the norm-conserving case.
- DOI and bibtex: see https://docs.abinit.org/theory/bibliography/#gonze1997a
-
- [7] Optimized norm-conserving Vanderbilt pseudopotentials.
- D.R. Hamann, Phys. Rev. B 88, 085117 (2013).
- Comment: Some pseudopotential generated using the ONCVPSP code were used.
- DOI and bibtex: see https://docs.abinit.org/theory/bibliography/#hamann2013
-
- [8] ABINIT: Overview, and focus on selected capabilities
- J. Chem. Phys. 152, 124102 (2020).
- A. Romero, D.C. Allan, B. Amadon, G. Antonius, T. Applencourt, L.Baguet,
- J.Bieder, F.Bottin, J.Bouchet, E.Bousquet, F.Bruneval,
- G.Brunin, D.Caliste, M.Cote,
- J.Denier, C. Dreyer, Ph.Ghosez, M.Giantomassi, Y.Gillet, O.Gingras,
- D.R.Hamann, G.Hautier, F.Jollet, G. Jomard,
- A.Martin, 
- H.P.C. Miranda, F.Naccarato, G.Petretto, N.A. Pike, V.Planes,
- S.Prokhorenko, T. Rangel, F.Ricci, G.-M.Rignanese, M.Royo, M.Stengel, M.Torrent,
- M.J.van Setten, B.Van Troeye, M.J.Verstraete, J.Wiktor, J.W.Zwanziger, and X.Gonze.
- Comment: a global overview of ABINIT, with focus on selected capabilities .
- Note that a version of this paper, that is not formatted for J. Chem. Phys 
- is available at https://www.abinit.org/sites/default/files/ABINIT20_JPC.pdf .
- The licence allows the authors to put it on the Web.
- DOI and bibtex: see https://docs.abinit.org/theory/bibliography/#romero2020
-
- [9] Recent developments in the ABINIT software package.
- Computer Phys. Comm. 205, 106 (2016).
- X.Gonze, F.Jollet, F.Abreu Araujo, D.Adams, B.Amadon, T.Applencourt,
- C.Audouze, J.-M.Beuken, J.Bieder, A.Bokhanchuk, E.Bousquet, F.Bruneval
- D.Caliste, M.Cote, F.Dahm, F.Da Pieve, M.Delaveau, M.Di Gennaro,
- B.Dorado, C.Espejo, G.Geneste, L.Genovese, A.Gerossier, M.Giantomassi,
- Y.Gillet, D.R.Hamann, L.He, G.Jomard, J.Laflamme Janssen, S.Le Roux,
- A.Levitt, A.Lherbier, F.Liu, I.Lukacevic, A.Martin, C.Martins,
- M.J.T.Oliveira, S.Ponce, Y.Pouillon, T.Rangel, G.-M.Rignanese,
- A.H.Romero, B.Rousseau, O.Rubel, A.A.Shukri, M.Stankovski, M.Torrent,
- M.J.Van Setten, B.Van Troeye, M.J.Verstraete, D.Waroquier, J.Wiktor,
- B.Xu, A.Zhou, J.W.Zwanziger.
- Comment: the fourth generic paper describing the ABINIT project.
- Note that a version of this paper, that is not formatted for Computer Phys. Comm. 
- is available at https://www.abinit.org/sites/default/files/ABINIT16.pdf .
- The licence allows the authors to put it on the Web.
- DOI and bibtex: see https://docs.abinit.org/theory/bibliography/#gonze2016
-
- Proc.   0 individual time (sec): cpu=       5286.0  wall=       6726.0

================================================================================

 Calculation completed.
.Delivered   1 WARNINGs and   3 COMMENTs to log file.
+Overall time at end (sec) : cpu=      42241.5  wall=      53806.0
