
 **** DERIVATIVE DATABASE ****    
+DDB, Version number    100401

 linear + nonlinear response calculation of InSb

    usepaw         0
     natom         2
      nkpt       128
    nsppol         1
      nsym        24
    ntypat         2
    occopt         1
     nband        14
     acell  0.12181502674000D+02  0.12181502674000D+02  0.12181502674000D+02
       amu  0.11482000000000D+03  0.12175300000000D+03
   dilatmx  0.10500000000000D+01
      ecut  0.42000000000000D+02
    ecutsm  0.50000000000000D+00
     intxc         0
      iscf         7
       ixc     -1012
       kpt -0.12500000000000D+00 -0.25000000000000D+00  0.00000000000000D+00
           -0.25000000000000D+00 -0.12500000000000D+00  0.00000000000000D+00
           -0.12500000000000D+00 -0.12500000000000D+00  0.12500000000000D+00
           -0.12500000000000D+00  0.50000000000000D+00  0.00000000000000D+00
           -0.25000000000000D+00 -0.37500000000000D+00  0.00000000000000D+00
           -0.12500000000000D+00 -0.37500000000000D+00  0.12500000000000D+00
           -0.37500000000000D+00 -0.25000000000000D+00  0.00000000000000D+00
           -0.25000000000000D+00 -0.25000000000000D+00  0.12500000000000D+00
           -0.12500000000000D+00 -0.25000000000000D+00  0.25000000000000D+00
            0.50000000000000D+00 -0.12500000000000D+00  0.00000000000000D+00
           -0.37500000000000D+00 -0.12500000000000D+00  0.12500000000000D+00
           -0.25000000000000D+00 -0.12500000000000D+00  0.25000000000000D+00
           -0.12500000000000D+00 -0.12500000000000D+00  0.37500000000000D+00
           -0.12500000000000D+00  0.25000000000000D+00  0.00000000000000D+00
           -0.25000000000000D+00  0.37500000000000D+00  0.00000000000000D+00
           -0.12500000000000D+00  0.37500000000000D+00  0.12500000000000D+00
           -0.37500000000000D+00  0.50000000000000D+00  0.00000000000000D+00
           -0.25000000000000D+00  0.50000000000000D+00  0.12500000000000D+00
           -0.12500000000000D+00  0.50000000000000D+00  0.25000000000000D+00
            0.50000000000000D+00 -0.37500000000000D+00  0.00000000000000D+00
           -0.37500000000000D+00 -0.37500000000000D+00  0.12500000000000D+00
           -0.25000000000000D+00 -0.37500000000000D+00  0.25000000000000D+00
           -0.12500000000000D+00 -0.37500000000000D+00  0.37500000000000D+00
            0.37500000000000D+00 -0.25000000000000D+00  0.00000000000000D+00
            0.50000000000000D+00 -0.25000000000000D+00  0.12500000000000D+00
           -0.37500000000000D+00 -0.25000000000000D+00  0.25000000000000D+00
           -0.25000000000000D+00 -0.25000000000000D+00  0.37500000000000D+00
           -0.12500000000000D+00 -0.25000000000000D+00  0.50000000000000D+00
            0.25000000000000D+00 -0.12500000000000D+00  0.00000000000000D+00
            0.37500000000000D+00 -0.12500000000000D+00  0.12500000000000D+00
            0.50000000000000D+00 -0.12500000000000D+00  0.25000000000000D+00
           -0.37500000000000D+00 -0.12500000000000D+00  0.37500000000000D+00
           -0.25000000000000D+00 -0.12500000000000D+00  0.50000000000000D+00
           -0.12500000000000D+00 -0.12500000000000D+00 -0.37500000000000D+00
           -0.12500000000000D+00  0.00000000000000D+00  0.00000000000000D+00
           -0.12500000000000D+00  0.12500000000000D+00  0.12500000000000D+00
           -0.25000000000000D+00  0.25000000000000D+00  0.12500000000000D+00
           -0.12500000000000D+00  0.25000000000000D+00  0.25000000000000D+00
           -0.37500000000000D+00  0.37500000000000D+00  0.12500000000000D+00
           -0.25000000000000D+00  0.37500000000000D+00  0.25000000000000D+00
           -0.12500000000000D+00  0.37500000000000D+00  0.37500000000000D+00
            0.50000000000000D+00  0.50000000000000D+00  0.12500000000000D+00
           -0.37500000000000D+00  0.50000000000000D+00  0.25000000000000D+00
           -0.25000000000000D+00  0.50000000000000D+00  0.37500000000000D+00
           -0.12500000000000D+00  0.50000000000000D+00  0.50000000000000D+00
            0.37500000000000D+00 -0.37500000000000D+00  0.12500000000000D+00
            0.50000000000000D+00 -0.37500000000000D+00  0.25000000000000D+00
           -0.37500000000000D+00 -0.37500000000000D+00  0.37500000000000D+00
           -0.25000000000000D+00 -0.37500000000000D+00  0.50000000000000D+00
           -0.12500000000000D+00 -0.37500000000000D+00 -0.37500000000000D+00
            0.25000000000000D+00 -0.25000000000000D+00  0.12500000000000D+00
            0.37500000000000D+00 -0.25000000000000D+00  0.25000000000000D+00
            0.50000000000000D+00 -0.25000000000000D+00  0.37500000000000D+00
           -0.37500000000000D+00 -0.25000000000000D+00  0.50000000000000D+00
           -0.25000000000000D+00 -0.25000000000000D+00 -0.37500000000000D+00
           -0.12500000000000D+00 -0.25000000000000D+00 -0.25000000000000D+00
            0.00000000000000D+00 -0.12500000000000D+00  0.00000000000000D+00
            0.12500000000000D+00 -0.12500000000000D+00  0.12500000000000D+00
            0.25000000000000D+00 -0.12500000000000D+00  0.25000000000000D+00
            0.37500000000000D+00 -0.12500000000000D+00  0.37500000000000D+00
            0.50000000000000D+00 -0.12500000000000D+00  0.50000000000000D+00
           -0.37500000000000D+00 -0.12500000000000D+00 -0.37500000000000D+00
           -0.25000000000000D+00 -0.12500000000000D+00 -0.25000000000000D+00
           -0.12500000000000D+00 -0.12500000000000D+00 -0.12500000000000D+00
           -0.37500000000000D+00  0.00000000000000D+00  0.00000000000000D+00
           -0.25000000000000D+00  0.00000000000000D+00  0.12500000000000D+00
           -0.12500000000000D+00  0.00000000000000D+00  0.25000000000000D+00
           -0.37500000000000D+00  0.12500000000000D+00  0.12500000000000D+00
           -0.25000000000000D+00  0.12500000000000D+00  0.25000000000000D+00
           -0.12500000000000D+00  0.12500000000000D+00  0.37500000000000D+00
            0.50000000000000D+00  0.25000000000000D+00  0.12500000000000D+00
           -0.37500000000000D+00  0.25000000000000D+00  0.25000000000000D+00
           -0.25000000000000D+00  0.25000000000000D+00  0.37500000000000D+00
           -0.12500000000000D+00  0.25000000000000D+00  0.50000000000000D+00
            0.37500000000000D+00  0.37500000000000D+00  0.12500000000000D+00
            0.50000000000000D+00  0.37500000000000D+00  0.25000000000000D+00
           -0.37500000000000D+00  0.37500000000000D+00  0.37500000000000D+00
           -0.25000000000000D+00  0.37500000000000D+00  0.50000000000000D+00
           -0.12500000000000D+00  0.37500000000000D+00 -0.37500000000000D+00
            0.25000000000000D+00  0.50000000000000D+00  0.12500000000000D+00
            0.37500000000000D+00  0.50000000000000D+00  0.25000000000000D+00
            0.50000000000000D+00  0.50000000000000D+00  0.37500000000000D+00
           -0.37500000000000D+00  0.50000000000000D+00  0.50000000000000D+00
           -0.25000000000000D+00  0.50000000000000D+00 -0.37500000000000D+00
           -0.12500000000000D+00  0.50000000000000D+00 -0.25000000000000D+00
            0.00000000000000D+00 -0.37500000000000D+00  0.00000000000000D+00
            0.12500000000000D+00 -0.37500000000000D+00  0.12500000000000D+00
            0.25000000000000D+00 -0.37500000000000D+00  0.25000000000000D+00
            0.37500000000000D+00 -0.37500000000000D+00  0.37500000000000D+00
            0.50000000000000D+00 -0.37500000000000D+00  0.50000000000000D+00
           -0.37500000000000D+00 -0.37500000000000D+00 -0.37500000000000D+00
           -0.25000000000000D+00 -0.37500000000000D+00 -0.25000000000000D+00
           -0.12500000000000D+00 -0.37500000000000D+00 -0.12500000000000D+00
            0.00000000000000D+00 -0.25000000000000D+00  0.12500000000000D+00
            0.12500000000000D+00 -0.25000000000000D+00  0.25000000000000D+00
            0.25000000000000D+00 -0.25000000000000D+00  0.37500000000000D+00
            0.37500000000000D+00 -0.25000000000000D+00  0.50000000000000D+00
            0.50000000000000D+00 -0.25000000000000D+00 -0.37500000000000D+00
           -0.37500000000000D+00 -0.25000000000000D+00 -0.25000000000000D+00
           -0.25000000000000D+00 -0.25000000000000D+00 -0.12500000000000D+00
            0.00000000000000D+00 -0.12500000000000D+00  0.25000000000000D+00
            0.12500000000000D+00 -0.12500000000000D+00  0.37500000000000D+00
            0.25000000000000D+00 -0.12500000000000D+00  0.50000000000000D+00
            0.37500000000000D+00 -0.12500000000000D+00 -0.37500000000000D+00
            0.50000000000000D+00 -0.12500000000000D+00 -0.25000000000000D+00
           -0.37500000000000D+00 -0.12500000000000D+00 -0.12500000000000D+00
            0.50000000000000D+00  0.00000000000000D+00  0.12500000000000D+00
           -0.37500000000000D+00  0.00000000000000D+00  0.25000000000000D+00
           -0.25000000000000D+00  0.00000000000000D+00  0.37500000000000D+00
           -0.12500000000000D+00  0.00000000000000D+00  0.50000000000000D+00
            0.00000000000000D+00  0.50000000000000D+00  0.12500000000000D+00
            0.00000000000000D+00 -0.37500000000000D+00  0.25000000000000D+00
            0.00000000000000D+00 -0.25000000000000D+00  0.37500000000000D+00
            0.00000000000000D+00 -0.12500000000000D+00  0.50000000000000D+00
            0.25000000000000D+00  0.00000000000000D+00  0.12500000000000D+00
            0.37500000000000D+00  0.00000000000000D+00  0.25000000000000D+00
            0.50000000000000D+00  0.00000000000000D+00  0.37500000000000D+00
           -0.37500000000000D+00  0.00000000000000D+00  0.50000000000000D+00
           -0.25000000000000D+00  0.00000000000000D+00 -0.37500000000000D+00
           -0.12500000000000D+00  0.00000000000000D+00 -0.25000000000000D+00
            0.00000000000000D+00  0.25000000000000D+00  0.12500000000000D+00
            0.00000000000000D+00  0.37500000000000D+00  0.25000000000000D+00
            0.00000000000000D+00  0.50000000000000D+00  0.37500000000000D+00
            0.00000000000000D+00 -0.37500000000000D+00  0.50000000000000D+00
            0.00000000000000D+00 -0.25000000000000D+00 -0.37500000000000D+00
            0.00000000000000D+00 -0.12500000000000D+00 -0.25000000000000D+00
            0.00000000000000D+00  0.00000000000000D+00  0.12500000000000D+00
            0.00000000000000D+00  0.00000000000000D+00  0.37500000000000D+00
    kptnrm  0.10000000000000D+01
     ngfft        54   54   54
    nspden         1
   nspinor         1
       occ  0.20000000000000D+01  0.20000000000000D+01  0.20000000000000D+01
            0.20000000000000D+01  0.20000000000000D+01  0.20000000000000D+01
            0.20000000000000D+01  0.20000000000000D+01  0.20000000000000D+01
            0.20000000000000D+01  0.20000000000000D+01  0.20000000000000D+01
            0.20000000000000D+01  0.20000000000000D+01
     rprim  0.00000000000000D+00  0.50000000000000D+00  0.50000000000000D+00
            0.50000000000000D+00  0.00000000000000D+00  0.50000000000000D+00
            0.50000000000000D+00  0.50000000000000D+00  0.00000000000000D+00
  dfpt_sciss  0.00000000000000D+00
    spinat  0.00000000000000D+00  0.00000000000000D+00  0.00000000000000D+00
            0.00000000000000D+00  0.00000000000000D+00  0.00000000000000D+00
    symafm         1    1    1    1    1    1    1    1    1    1    1    1
                   1    1    1    1    1    1    1    1    1    1    1    1
    symrel         1    0    0    0    1    0    0    0    1
                   0   -1    1    0   -1    0    1   -1    0
                  -1    0    0   -1    0    1   -1    1    0
                   0    1   -1    1    0   -1    0    0   -1
                  -1    0    0   -1    1    0   -1    0    1
                   0   -1    1    1   -1    0    0   -1    0
                   1    0    0    0    0    1    0    1    0
                   0    1   -1    0    0   -1    1    0   -1
                  -1    0    1   -1    1    0   -1    0    0
                   0   -1    0    1   -1    0    0   -1    1
                   1    0   -1    0    0   -1    0    1   -1
                   0    1    0    0    0    1    1    0    0
                   1    0   -1    0    1   -1    0    0   -1
                   0   -1    0    0   -1    1    1   -1    0
                  -1    0    1   -1    0    0   -1    1    0
                   0    1    0    1    0    0    0    0    1
                   0    0   -1    0    1   -1    1    0   -1
                   1   -1    0    0   -1    1    0   -1    0
                   0    0    1    1    0    0    0    1    0
                  -1    1    0   -1    0    0   -1    0    1
                   0    0    1    0    1    0    1    0    0
                   1   -1    0    0   -1    0    0   -1    1
                   0    0   -1    1    0   -1    0    1   -1
                  -1    1    0   -1    0    1   -1    0    0
     tnons  0.00000000000000D+00  0.00000000000000D+00  0.00000000000000D+00
            0.00000000000000D+00  0.00000000000000D+00  0.00000000000000D+00
            0.00000000000000D+00  0.00000000000000D+00  0.00000000000000D+00
            0.00000000000000D+00  0.00000000000000D+00  0.00000000000000D+00
            0.00000000000000D+00  0.00000000000000D+00  0.00000000000000D+00
            0.00000000000000D+00  0.00000000000000D+00  0.00000000000000D+00
            0.00000000000000D+00  0.00000000000000D+00  0.00000000000000D+00
            0.00000000000000D+00  0.00000000000000D+00  0.00000000000000D+00
            0.00000000000000D+00  0.00000000000000D+00  0.00000000000000D+00
            0.00000000000000D+00  0.00000000000000D+00  0.00000000000000D+00
            0.00000000000000D+00  0.00000000000000D+00  0.00000000000000D+00
            0.00000000000000D+00  0.00000000000000D+00  0.00000000000000D+00
            0.00000000000000D+00  0.00000000000000D+00  0.00000000000000D+00
            0.00000000000000D+00  0.00000000000000D+00  0.00000000000000D+00
            0.00000000000000D+00  0.00000000000000D+00  0.00000000000000D+00
            0.00000000000000D+00  0.00000000000000D+00  0.00000000000000D+00
            0.00000000000000D+00  0.00000000000000D+00  0.00000000000000D+00
            0.00000000000000D+00  0.00000000000000D+00  0.00000000000000D+00
            0.00000000000000D+00  0.00000000000000D+00  0.00000000000000D+00
            0.00000000000000D+00  0.00000000000000D+00  0.00000000000000D+00
            0.00000000000000D+00  0.00000000000000D+00  0.00000000000000D+00
            0.00000000000000D+00  0.00000000000000D+00  0.00000000000000D+00
            0.00000000000000D+00  0.00000000000000D+00  0.00000000000000D+00
            0.00000000000000D+00  0.00000000000000D+00  0.00000000000000D+00
    tolwfr  0.10000000000000D+01
   tphysel  0.00000000000000D+00
    tsmear  0.10000000000000D-01
     typat         1    2
       wtk  0.78125000000000D-02  0.78125000000000D-02  0.78125000000000D-02
            0.78125000000000D-02  0.78125000000000D-02  0.78125000000000D-02
            0.78125000000000D-02  0.78125000000000D-02  0.78125000000000D-02
            0.78125000000000D-02  0.78125000000000D-02  0.78125000000000D-02
            0.78125000000000D-02  0.78125000000000D-02  0.78125000000000D-02
            0.78125000000000D-02  0.78125000000000D-02  0.78125000000000D-02
            0.78125000000000D-02  0.78125000000000D-02  0.78125000000000D-02
            0.78125000000000D-02  0.78125000000000D-02  0.78125000000000D-02
            0.78125000000000D-02  0.78125000000000D-02  0.78125000000000D-02
            0.78125000000000D-02  0.78125000000000D-02  0.78125000000000D-02
            0.78125000000000D-02  0.78125000000000D-02  0.78125000000000D-02
            0.78125000000000D-02  0.78125000000000D-02  0.78125000000000D-02
            0.78125000000000D-02  0.78125000000000D-02  0.78125000000000D-02
            0.78125000000000D-02  0.78125000000000D-02  0.78125000000000D-02
            0.78125000000000D-02  0.78125000000000D-02  0.78125000000000D-02
            0.78125000000000D-02  0.78125000000000D-02  0.78125000000000D-02
            0.78125000000000D-02  0.78125000000000D-02  0.78125000000000D-02
            0.78125000000000D-02  0.78125000000000D-02  0.78125000000000D-02
            0.78125000000000D-02  0.78125000000000D-02  0.78125000000000D-02
            0.78125000000000D-02  0.78125000000000D-02  0.78125000000000D-02
            0.78125000000000D-02  0.78125000000000D-02  0.78125000000000D-02
            0.78125000000000D-02  0.78125000000000D-02  0.78125000000000D-02
            0.78125000000000D-02  0.78125000000000D-02  0.78125000000000D-02
            0.78125000000000D-02  0.78125000000000D-02  0.78125000000000D-02
            0.78125000000000D-02  0.78125000000000D-02  0.78125000000000D-02
            0.78125000000000D-02  0.78125000000000D-02  0.78125000000000D-02
            0.78125000000000D-02  0.78125000000000D-02  0.78125000000000D-02
            0.78125000000000D-02  0.78125000000000D-02  0.78125000000000D-02
            0.78125000000000D-02  0.78125000000000D-02  0.78125000000000D-02
            0.78125000000000D-02  0.78125000000000D-02  0.78125000000000D-02
            0.78125000000000D-02  0.78125000000000D-02  0.78125000000000D-02
            0.78125000000000D-02  0.78125000000000D-02  0.78125000000000D-02
            0.78125000000000D-02  0.78125000000000D-02  0.78125000000000D-02
            0.78125000000000D-02  0.78125000000000D-02  0.78125000000000D-02
            0.78125000000000D-02  0.78125000000000D-02  0.78125000000000D-02
            0.78125000000000D-02  0.78125000000000D-02  0.78125000000000D-02
            0.78125000000000D-02  0.78125000000000D-02  0.78125000000000D-02
            0.78125000000000D-02  0.78125000000000D-02  0.78125000000000D-02
            0.78125000000000D-02  0.78125000000000D-02  0.78125000000000D-02
            0.78125000000000D-02  0.78125000000000D-02  0.78125000000000D-02
            0.78125000000000D-02  0.78125000000000D-02  0.78125000000000D-02
            0.78125000000000D-02  0.78125000000000D-02  0.78125000000000D-02
            0.78125000000000D-02  0.78125000000000D-02
      xred  0.00000000000000D+00  0.00000000000000D+00  0.00000000000000D+00
            0.25000000000000D+00  0.25000000000000D+00  0.25000000000000D+00
     znucl  0.49000000000000D+02  0.51000000000000D+02
      zion  0.13000000000000D+02  0.15000000000000D+02
 
  Description of the potentials (KB energies)
  vrsio8 (for pseudopotentials)=100401
  usepaw =  0
  dimekb =  6       lmnmax=  6
  Atom type=    1   pspso=  0   nekb=   6
  iln lpsang iproj  ekb(:)
     1     0     1     8.1336241E+00  0.0000000E+00  0.0000000E+00  0.0000000E+00
                       0.0000000E+00  0.0000000E+00
     2     0     2     0.0000000E+00  1.2260308E+00  0.0000000E+00  0.0000000E+00
                       0.0000000E+00  0.0000000E+00
     3     1     1     0.0000000E+00  0.0000000E+00  5.9762547E+00  0.0000000E+00
                       0.0000000E+00  0.0000000E+00
     4     1     2     0.0000000E+00  0.0000000E+00  0.0000000E+00  1.0153184E+00
                       0.0000000E+00  0.0000000E+00
     5     2     1     0.0000000E+00  0.0000000E+00  0.0000000E+00  0.0000000E+00
                      -4.0924032E+00  0.0000000E+00
     6     2     2     0.0000000E+00  0.0000000E+00  0.0000000E+00  0.0000000E+00
                      -4.0924032E+00  0.0000000E+00
  Atom type=    2   pspso=  0   nekb=   6
  iln lpsang iproj  ekb(:)
     1     0     1     7.7907068E+00  0.0000000E+00  0.0000000E+00  0.0000000E+00
                       0.0000000E+00  0.0000000E+00
     2     0     2     0.0000000E+00  1.0443563E+00  0.0000000E+00  0.0000000E+00
                       0.0000000E+00  0.0000000E+00
     3     1     1     0.0000000E+00  0.0000000E+00  5.4633671E+00  0.0000000E+00
                       0.0000000E+00  0.0000000E+00
     4     1     2     0.0000000E+00  0.0000000E+00  0.0000000E+00  7.0439810E-01
                       0.0000000E+00  0.0000000E+00
     5     2     1     0.0000000E+00  0.0000000E+00  0.0000000E+00  0.0000000E+00
                      -4.7914887E+00  0.0000000E+00
     6     2     2     0.0000000E+00  0.0000000E+00  0.0000000E+00  0.0000000E+00
                      -4.7914887E+00  0.0000000E+00
 
 **** Database of total energy derivatives ****
 Number of data blocks=    2
  
 2nd derivatives (non-stat.)  - # elements :     171
 qpt  0.00000000E+00  0.00000000E+00  0.00000000E+00   1.0
   1   1   1   1  0.53548992298929D+01  0.00000000000000D+00
   2   1   1   1  0.26774496149446D+01  0.00000000000000D+00
   3   1   1   1  0.26774496149392D+01  0.00000000000000D+00
   1   2   1   1 -0.53549049768249D+01 -0.46203983350322D-16
   2   2   1   1 -0.26774524884124D+01 -0.11132632778987D-15
   3   2   1   1 -0.26774524884124D+01  0.27339834495743D-15
   1   4   1   1 -0.67536380847611D+02  0.00000000000000D+00
   2   4   1   1 -0.19267729111583D-15  0.00000000000000D+00
   3   4   1   1  0.34645527586370D-16  0.00000000000000D+00
   1   1   2   1  0.26774496149465D+01  0.00000000000000D+00
   2   1   2   1  0.53548992298893D+01  0.00000000000000D+00
   3   1   2   1  0.26774496149446D+01  0.00000000000000D+00
   1   2   2   1 -0.26774524884124D+01 -0.11132632778987D-15
   2   2   2   1 -0.53549049768249D+01  0.24075115104497D-15
   3   2   2   1 -0.26774524884125D+01  0.11587179647361D-15
   1   4   2   1 -0.59211894646675D-15  0.00000000000000D+00
   2   4   2   1 -0.67536380847611D+02  0.00000000000000D+00
   3   4   2   1  0.46485694962862D-15  0.00000000000000D+00
   1   1   3   1  0.26774496149465D+01  0.00000000000000D+00
   2   1   3   1  0.26774496149446D+01  0.00000000000000D+00
   3   1   3   1  0.53548992299002D+01  0.00000000000000D+00
   1   2   3   1 -0.26774524884124D+01  0.27339834495743D-15
   2   2   3   1 -0.26774524884124D+01  0.11587179647361D-15
   3   2   3   1 -0.53549049768249D+01 -0.26544717418767D-15
   1   4   3   1  0.00000000000000D+00  0.00000000000000D+00
   2   4   3   1  0.55394199400793D-15  0.00000000000000D+00
   3   4   3   1 -0.67536380847611D+02  0.00000000000000D+00
   1   1   1   2 -0.53549041994667D+01  0.46203983350322D-16
   2   1   1   2 -0.26774520997333D+01  0.11132632778987D-15
   3   1   1   2 -0.26774520997333D+01 -0.27339834495743D-15
   1   2   1   2  0.53549062594066D+01  0.00000000000000D+00
   2   2   1   2  0.26774531297069D+01  0.00000000000000D+00
   3   2   1   2  0.26774531297087D+01  0.00000000000000D+00
   1   4   1   2 -0.11011139345457D+03  0.00000000000000D+00
   2   4   1   2  0.13401054007734D-15  0.00000000000000D+00
   3   4   1   2  0.12220229019546D-15  0.00000000000000D+00
   1   1   2   2 -0.26774520997333D+01  0.11132632778987D-15
   2   1   2   2 -0.53549041994666D+01 -0.24075115104497D-15
   3   1   2   2 -0.26774520997333D+01 -0.11587179647361D-15
   1   2   2   2  0.26774531297033D+01  0.00000000000000D+00
   2   2   2   2  0.53549062594138D+01  0.00000000000000D+00
   3   2   2   2  0.26774531297124D+01  0.00000000000000D+00
   1   4   2   2  0.00000000000000D+00  0.00000000000000D+00
   2   4   2   2 -0.11011139345457D+03  0.00000000000000D+00
   3   4   2   2  0.15920972434963D-15  0.00000000000000D+00
   1   1   3   2 -0.26774520997333D+01 -0.27339834495743D-15
   2   1   3   2 -0.26774520997333D+01 -0.11587179647361D-15
   3   1   3   2 -0.53549041994666D+01  0.26544717418767D-15
   1   2   3   2  0.26774531297033D+01  0.00000000000000D+00
   2   2   3   2  0.26774531297087D+01  0.00000000000000D+00
   3   2   3   2  0.53549062594066D+01  0.00000000000000D+00
   1   4   3   2  0.00000000000000D+00  0.00000000000000D+00
   2   4   3   2  0.19456329041621D-15  0.00000000000000D+00
   3   4   3   2 -0.11011139345457D+03  0.00000000000000D+00
   1   1   1   4 -0.67536380380149D+02  0.00000000000000D+00
   2   1   1   4 -0.59211894646675D-15  0.00000000000000D+00
   3   1   1   4  0.59211894646675D-15  0.00000000000000D+00
   1   2   1   4 -0.11011139363133D+03  0.00000000000000D+00
   2   2   1   4  0.00000000000000D+00  0.00000000000000D+00
   3   2   1   4  0.11842378929335D-14  0.00000000000000D+00
   1   4   1   4 -0.64499706201206D+03  0.00000000000000D+00
   2   4   1   4  0.21499902067069D+03  0.00000000000000D+00
   3   4   1   4  0.21499902067069D+03  0.00000000000000D+00
   1   1   2   4 -0.30930776804750D-15  0.00000000000000D+00
   2   1   2   4 -0.67536380380149D+02  0.00000000000000D+00
   3   1   2   4  0.16116000930102D-15  0.00000000000000D+00
   1   2   2   4  0.10615944156186D-14  0.00000000000000D+00
   2   2   2   4 -0.11011139363133D+03  0.00000000000000D+00
   3   2   2   4 -0.89779601366497D-15  0.00000000000000D+00
   1   4   2   4  0.21499902067069D+03  0.00000000000000D+00
   2   4   2   4 -0.64499706201206D+03  0.00000000000000D+00
   3   4   2   4  0.21499902067069D+03  0.00000000000000D+00
   1   1   3   4 -0.24150598022334D-15  0.00000000000000D+00
   2   1   3   4  0.55722822820902D-15  0.00000000000000D+00
   3   1   3   4 -0.67536380380149D+02  0.00000000000000D+00
   1   2   3   4 -0.71350299649345D-15  0.00000000000000D+00
   2   2   3   4 -0.28140676084530D-15  0.00000000000000D+00
   3   2   3   4 -0.11011139363133D+03  0.00000000000000D+00
   1   4   3   4  0.21499902067069D+03  0.00000000000000D+00
   2   4   3   4  0.21499902067069D+03  0.00000000000000D+00
   3   4   3   4 -0.64499706201206D+03  0.00000000000000D+00
   1   1   1   5  0.22882503706579D-07  0.00000000000000D+00
   2   1   1   5 -0.68126443451772D-08  0.00000000000000D+00
   3   1   1   5  0.14260159925601D-07  0.00000000000000D+00
   1   2   1   5  0.78621119042813D-09  0.00000000000000D+00
   2   2   1   5 -0.27519553660439D-07  0.00000000000000D+00
   3   2   1   5 -0.34476869803854D-07  0.00000000000000D+00
   1   4   1   5 -0.28973723489867D-08  0.00000000000000D+00
   2   4   1   5 -0.77904434292453D-09  0.00000000000000D+00
   3   4   1   5 -0.19664773281969D-10  0.00000000000000D+00
   1   5   1   5  0.10256099344604D+01  0.00000000000000D+00
   2   5   1   5  0.56219975055043D+00  0.00000000000000D+00
   3   5   1   5  0.56219974291235D+00  0.00000000000000D+00
   1   6   1   5 -0.86596528350840D-10  0.00000000000000D+00
   2   6   1   5 -0.53322319533496D-08  0.00000000000000D+00
   3   6   1   5 -0.34351490118233D-08  0.00000000000000D+00
   1   1   2   5 -0.93085259665841D-08  0.00000000000000D+00
   2   1   2   5 -0.10604804079909D-07  0.00000000000000D+00
   3   1   2   5 -0.11171814825683D-07  0.00000000000000D+00
   1   2   2   5 -0.95368453671991D-08  0.00000000000000D+00
   2   2   2   5 -0.43224466388633D-08  0.00000000000000D+00
   3   2   2   5 -0.94106619965368D-08  0.00000000000000D+00
   1   4   2   5 -0.32953312301132D-08  0.00000000000000D+00
   2   4   2   5 -0.26669511599131D-08  0.00000000000000D+00
   3   4   2   5 -0.28959010051066D-08  0.00000000000000D+00
   1   5   2   5  0.56219974708740D+00  0.00000000000000D+00
   2   5   2   5  0.10256099345606D+01  0.00000000000000D+00
   3   5   2   5  0.56219974753287D+00  0.00000000000000D+00
   1   6   2   5 -0.13932440338051D-09  0.00000000000000D+00
   2   6   2   5 -0.29702382214605D-08  0.00000000000000D+00
   3   6   2   5 -0.31929982081205D-08  0.00000000000000D+00
   1   1   3   5  0.14321413739785D-07  0.00000000000000D+00
   2   1   3   5 -0.67545158260383D-08  0.00000000000000D+00
   3   1   3   5  0.22872443901975D-07  0.00000000000000D+00
   1   2   3   5 -0.34526034177955D-07  0.00000000000000D+00
   2   2   3   5 -0.27581065225511D-07  0.00000000000000D+00
   3   2   3   5  0.77955534733410D-09  0.00000000000000D+00
   1   4   3   5 -0.13180784241840D-09  0.00000000000000D+00
   2   4   3   5 -0.43008302474945D-09  0.00000000000000D+00
   3   4   3   5 -0.27796465407182D-08  0.00000000000000D+00
   1   5   3   5  0.56219974291270D+00  0.00000000000000D+00
   2   5   3   5  0.56219975099786D+00  0.00000000000000D+00
   3   5   3   5  0.10256099402929D+01  0.00000000000000D+00
   1   6   3   5 -0.40254854929569D-09  0.00000000000000D+00
   2   6   3   5 -0.53316798877702D-08  0.00000000000000D+00
   3   6   3   5 -0.56582115914181D-09  0.00000000000000D+00
   1   1   1   6 -0.45800513287242D-07  0.00000000000000D+00
   2   1   1   6 -0.89981522953888D+00  0.00000000000000D+00
   3   1   1   6 -0.89981528384575D+00  0.00000000000000D+00
   1   2   1   6 -0.27386410390517D-07  0.00000000000000D+00
   2   2   1   6  0.89981459324752D+00  0.00000000000000D+00
   3   2   1   6  0.89981455780529D+00  0.00000000000000D+00
   1   4   1   6  0.32430917290426D+01  0.00000000000000D+00
   2   4   1   6 -0.32430922588147D+01  0.00000000000000D+00
   3   4   1   6 -0.32430916123874D+01  0.00000000000000D+00
   1   5   1   6  0.43428559367010D-09  0.00000000000000D+00
   2   5   1   6  0.50528687542140D-10  0.00000000000000D+00
   3   5   1   6  0.55431129900035D-09  0.00000000000000D+00
   1   6   1   6  0.76164721403512D+00  0.00000000000000D+00
   2   6   1   6  0.10822550113637D-08  0.00000000000000D+00
   3   6   1   6 -0.55258797736697D-08  0.00000000000000D+00
   1   1   2   6 -0.89981514017271D+00  0.00000000000000D+00
   2   1   2   6  0.63808311370907D-07  0.00000000000000D+00
   3   1   2   6 -0.89981514041568D+00  0.00000000000000D+00
   1   2   2   6  0.89981478793469D+00  0.00000000000000D+00
   2   2   2   6  0.49570101348543D-07  0.00000000000000D+00
   3   2   2   6  0.89981478794806D+00  0.00000000000000D+00
   1   4   2   6 -0.32430917829577D+01  0.00000000000000D+00
   2   4   2   6  0.32430912336757D+01  0.00000000000000D+00
   3   4   2   6 -0.32430917823769D+01  0.00000000000000D+00
   1   5   2   6  0.23327829105169D-08  0.00000000000000D+00
   2   5   2   6  0.36378975299956D-08  0.00000000000000D+00
   3   5   2   6  0.23329222148619D-08  0.00000000000000D+00
   1   6   2   6 -0.52051549599809D-08  0.00000000000000D+00
   2   6   2   6  0.76164721830907D+00  0.00000000000000D+00
   3   6   2   6 -0.39003768520709D-08  0.00000000000000D+00
   1   1   3   6 -0.89981528380049D+00  0.00000000000000D+00
   2   1   3   6 -0.89981522949130D+00  0.00000000000000D+00
   3   1   3   6 -0.45793990092214D-07  0.00000000000000D+00
   1   2   3   6  0.89981455789681D+00  0.00000000000000D+00
   2   2   3   6  0.89981459333074D+00  0.00000000000000D+00
   3   2   3   6 -0.27387601221913D-07  0.00000000000000D+00
   1   4   3   6 -0.32430916126182D+01  0.00000000000000D+00
   2   4   3   6 -0.32430922589975D+01  0.00000000000000D+00
   3   4   3   6  0.32430917290473D+01  0.00000000000000D+00
   1   5   3   6 -0.24771422368408D-08  0.00000000000000D+00
   2   5   3   6 -0.29814388189550D-08  0.00000000000000D+00
   3   5   3   6 -0.44965999303695D-10  0.00000000000000D+00
   1   6   3   6 -0.55274226012292D-08  0.00000000000000D+00
   2   6   3   6  0.23946691727013D-08  0.00000000000000D+00
   3   6   3   6  0.76164721277979D+00  0.00000000000000D+00
  
 3rd derivatives              - # elements :     189
 qpt  0.00000000E+00  0.00000000E+00  0.00000000E+00   1.0
      0.00000000E+00  0.00000000E+00  0.00000000E+00   1.0
      0.00000000E+00  0.00000000E+00  0.00000000E+00   1.0
   1   4   1   4   1   1 -0.28564097868394D+03  0.78760701170127D+02
   2   4   1   4   1   1  0.14282047184299D+03 -0.31885822476287D+02
   3   4   1   4   1   1  0.14282047184299D+03 -0.31885822476287D+02
   1   4   2   4   1   1  0.14282048248306D+03  0.65409642382295D+01
   2   4   2   4   1   1  0.00000000000000D+00  0.00000000000000D+00
   3   4   2   4   1   1  0.00000000000000D+00  0.00000000000000D+00
   1   4   3   4   1   1  0.14282048248306D+03  0.65409642382295D+01
   2   4   3   4   1   1  0.00000000000000D+00  0.00000000000000D+00
   3   4   3   4   1   1  0.00000000000000D+00  0.00000000000000D+00
   1   4   1   4   2   1  0.00000000000000D+00  0.00000000000000D+00
   2   4   1   4   2   1  0.14282048556080D+03 -0.12372845212287D+03
   3   4   1   4   2   1  0.00000000000000D+00  0.00000000000000D+00
   1   4   2   4   2   1  0.14282047184299D+03 -0.31885822476287D+02
   2   4   2   4   2   1 -0.28564097868394D+03  0.78760701170127D+02
   3   4   2   4   2   1  0.14282047184299D+03 -0.31885822476287D+02
   1   4   3   4   2   1  0.00000000000000D+00  0.00000000000000D+00
   2   4   3   4   2   1  0.14282048248306D+03  0.65409642382295D+01
   3   4   3   4   2   1  0.00000000000000D+00  0.00000000000000D+00
   1   4   1   4   3   1  0.00000000000000D+00  0.00000000000000D+00
   2   4   1   4   3   1  0.00000000000000D+00  0.00000000000000D+00
   3   4   1   4   3   1  0.14282048248306D+03  0.65409642382295D+01
   1   4   2   4   3   1  0.00000000000000D+00  0.00000000000000D+00
   2   4   2   4   3   1  0.00000000000000D+00  0.00000000000000D+00
   3   4   2   4   3   1  0.14282048556080D+03 -0.12372845212287D+03
   1   4   3   4   3   1  0.14282047184299D+03 -0.31885822476287D+02
   2   4   3   4   3   1  0.14282047184299D+03 -0.31885822476287D+02
   3   4   3   4   3   1 -0.28564097868394D+03  0.78760701170127D+02
   1   4   1   4   1   2  0.24963206772595D+03 -0.33488252907873D+03
   2   4   1   4   1   2 -0.12481603626659D+03  0.71079709922327D+02
   3   4   1   4   1   2 -0.12481603626659D+03  0.71079709922327D+02
   1   4   2   4   1   2 -0.12481603628914D+03 -0.51063256581150D+02
   2   4   2   4   1   2  0.00000000000000D+00  0.00000000000000D+00
   3   4   2   4   1   2  0.00000000000000D+00  0.00000000000000D+00
   1   4   3   4   1   2 -0.12481603628914D+03 -0.51063256581150D+02
   2   4   3   4   1   2  0.00000000000000D+00  0.00000000000000D+00
   3   4   3   4   1   2  0.00000000000000D+00  0.00000000000000D+00
   1   4   1   4   2   2  0.00000000000000D+00  0.00000000000000D+00
   2   4   1   4   2   2 -0.12481603141426D+03  0.50808875216336D+03
   3   4   1   4   2   2  0.00000000000000D+00  0.00000000000000D+00
   1   4   2   4   2   2 -0.12481603626659D+03  0.71079709922327D+02
   2   4   2   4   2   2  0.24963206772595D+03 -0.33488252907873D+03
   3   4   2   4   2   2 -0.12481603626659D+03  0.71079709922327D+02
   1   4   3   4   2   2  0.00000000000000D+00  0.00000000000000D+00
   2   4   3   4   2   2 -0.12481603628914D+03 -0.51063256581150D+02
   3   4   3   4   2   2  0.00000000000000D+00  0.00000000000000D+00
   1   4   1   4   3   2  0.00000000000000D+00  0.00000000000000D+00
   2   4   1   4   3   2  0.00000000000000D+00  0.00000000000000D+00
   3   4   1   4   3   2 -0.12481603628914D+03 -0.51063256581150D+02
   1   4   2   4   3   2  0.00000000000000D+00  0.00000000000000D+00
   2   4   2   4   3   2  0.00000000000000D+00  0.00000000000000D+00
   3   4   2   4   3   2 -0.12481603141426D+03  0.50808875216336D+03
   1   4   3   4   3   2 -0.12481603626659D+03  0.71079709922327D+02
   2   4   3   4   3   2 -0.12481603626659D+03  0.71079709922327D+02
   3   4   3   4   3   2  0.24963206772595D+03 -0.33488252907873D+03
   1   4   1   1   1   4 -0.88699394189562D+03 -0.37692872666187D-12
   2   4   1   1   1   4  0.44349696691270D+03  0.85472336600265D+01
   3   4   1   1   1   4  0.44349696691270D+03  0.85472336600265D+01
   1   4   2   1   1   4  0.00000000000000D+00  0.00000000000000D+00
   2   4   2   1   1   4  0.44349697498292D+03 -0.85472336600262D+01
   3   4   2   1   1   4  0.00000000000000D+00  0.00000000000000D+00
   1   4   3   1   1   4  0.00000000000000D+00  0.00000000000000D+00
   2   4   3   1   1   4  0.00000000000000D+00  0.00000000000000D+00
   3   4   3   1   1   4  0.44349696691270D+03  0.85472336600265D+01
   1   4   1   2   1   4  0.96526599488785D+03 -0.11737486665413D-12
   2   4   1   2   1   4 -0.48263299365312D+03 -0.78617568552313D+01
   3   4   1   2   1   4 -0.48263299365312D+03 -0.78617568552313D+01
   1   4   2   2   1   4  0.00000000000000D+00  0.00000000000000D+00
   2   4   2   2   1   4 -0.48263300123472D+03  0.78617568552314D+01
   3   4   2   2   1   4  0.00000000000000D+00  0.00000000000000D+00
   1   4   3   2   1   4  0.00000000000000D+00  0.00000000000000D+00
   2   4   3   2   1   4  0.00000000000000D+00  0.00000000000000D+00
   3   4   3   2   1   4 -0.48263299365312D+03 -0.78617568552313D+01
   1   1   1   4   1   4 -0.28564097868394D+03  0.78760701170127D+02
   2   1   1   4   1   4  0.00000000000000D+00  0.00000000000000D+00
   3   1   1   4   1   4  0.00000000000000D+00  0.00000000000000D+00
   1   2   1   4   1   4  0.24963206772595D+03 -0.33488252907873D+03
   2   2   1   4   1   4  0.00000000000000D+00  0.00000000000000D+00
   3   2   1   4   1   4  0.00000000000000D+00  0.00000000000000D+00
   1   4   1   4   1   4  0.78703983027449D+04  0.13982456093503D+05
   2   4   1   4   1   4 -0.26234661029114D+04 -0.62297081882104D+04
   3   4   1   4   1   4 -0.26234661034918D+04 -0.24310784769337D+05
   1   1   2   4   1   4  0.14282048248306D+03  0.65409642382295D+01
   2   1   2   4   1   4  0.14282051748102D+03 -0.84480919793239D+01
   3   1   2   4   1   4  0.00000000000000D+00  0.00000000000000D+00
   1   2   2   4   1   4 -0.12481603628914D+03 -0.51063256581150D+02
   2   2   2   4   1   4 -0.12481603148192D+03  0.14165985265293D+03
   3   2   2   4   1   4  0.00000000000000D+00  0.00000000000000D+00
   1   4   2   4   1   4 -0.26234661008697D+04  0.41283996005071D+04
   2   4   2   4   1   4 -0.26234661014501D+04 -0.13952676980619D+05
   3   4   2   4   1   4  0.26234660983007D+04  0.46918403294770D+04
   1   1   3   4   1   4  0.14282048248306D+03  0.65409642382295D+01
   2   1   3   4   1   4  0.00000000000000D+00  0.00000000000000D+00
   3   1   3   4   1   4  0.14282047184299D+03 -0.31885822476287D+02
   1   2   3   4   1   4 -0.12481603628914D+03 -0.51063256581150D+02
   2   2   3   4   1   4  0.00000000000000D+00  0.00000000000000D+00
   3   2   3   4   1   4 -0.12481603626659D+03  0.71079709922327D+02
   1   4   3   4   1   4 -0.26234661008697D+04  0.41283996005071D+04
   2   4   3   4   1   4  0.26234661040191D+04  0.51324370506351D+04
   3   4   3   4   1   4 -0.26234660983834D+04  0.61999290753270D+04
   1   4   1   1   2   4  0.44349696691270D+03  0.85472336600265D+01
   2   4   1   1   2   4  0.00000000000000D+00  0.00000000000000D+00
   3   4   1   1   2   4  0.00000000000000D+00  0.00000000000000D+00
   1   4   2   1   2   4  0.44349696691270D+03  0.85472336600265D+01
   2   4   2   1   2   4 -0.88699394189562D+03 -0.37692872666187D-12
   3   4   2   1   2   4  0.44349696691270D+03  0.85472336600265D+01
   1   4   3   1   2   4  0.00000000000000D+00  0.00000000000000D+00
   2   4   3   1   2   4  0.00000000000000D+00  0.00000000000000D+00
   3   4   3   1   2   4  0.44349697498292D+03 -0.85472336600262D+01
   1   4   1   2   2   4 -0.48263299365312D+03 -0.78617568552313D+01
   2   4   1   2   2   4  0.00000000000000D+00  0.00000000000000D+00
   3   4   1   2   2   4  0.00000000000000D+00  0.00000000000000D+00
   1   4   2   2   2   4 -0.48263299365312D+03 -0.78617568552313D+01
   2   4   2   2   2   4  0.96526599488785D+03 -0.11737486665413D-12
   3   4   2   2   2   4 -0.48263299365312D+03 -0.78617568552313D+01
   1   4   3   2   2   4  0.00000000000000D+00  0.00000000000000D+00
   2   4   3   2   2   4  0.00000000000000D+00  0.00000000000000D+00
   3   4   3   2   2   4 -0.48263300123472D+03  0.78617568552314D+01
   1   1   1   4   2   4  0.14282047184299D+03 -0.31885822476287D+02
   2   1   1   4   2   4  0.14282048248306D+03  0.65409642382295D+01
   3   1   1   4   2   4  0.00000000000000D+00  0.00000000000000D+00
   1   2   1   4   2   4 -0.12481603626659D+03  0.71079709922327D+02
   2   2   1   4   2   4 -0.12481603628914D+03 -0.51063256581150D+02
   3   2   1   4   2   4  0.00000000000000D+00  0.00000000000000D+00
   1   4   1   4   2   4 -0.26234661029114D+04 -0.62297081882104D+04
   2   4   1   4   2   4 -0.26234661010055D+04 -0.22239255294517D+05
   3   4   1   4   2   4  0.26234661003424D+04  0.15049948118194D+05
   1   1   2   4   2   4  0.00000000000000D+00  0.00000000000000D+00
   2   1   2   4   2   4 -0.28564097868394D+03  0.78760701170127D+02
   3   1   2   4   2   4  0.00000000000000D+00  0.00000000000000D+00
   1   2   2   4   2   4  0.00000000000000D+00  0.00000000000000D+00
   2   2   2   4   2   4  0.24963206772595D+03 -0.33488252907873D+03
   3   2   2   4   2   4  0.00000000000000D+00  0.00000000000000D+00
   1   4   2   4   2   4 -0.26234661014501D+04 -0.13952676980619D+05
   2   4   2   4   2   4  0.78703983027449D+04  0.13982456093503D+05
   3   4   2   4   2   4 -0.26234661029114D+04 -0.62297081882104D+04
   1   1   3   4   2   4  0.00000000000000D+00  0.00000000000000D+00
   2   1   3   4   2   4  0.14282048248306D+03  0.65409642382295D+01
   3   1   3   4   2   4  0.14282051748102D+03 -0.84480919793239D+01
   1   2   3   4   2   4  0.00000000000000D+00  0.00000000000000D+00
   2   2   3   4   2   4 -0.12481603628914D+03 -0.51063256581150D+02
   3   2   3   4   2   4 -0.12481603148192D+03  0.14165985265293D+03
   1   4   3   4   2   4  0.26234661040191D+04  0.51324370506351D+04
   2   4   3   4   2   4 -0.26234661008697D+04  0.41283996005071D+04
   3   4   3   4   2   4 -0.26234661014501D+04 -0.13952676980619D+05
   1   4   1   1   3   4  0.44349696691270D+03  0.85472336600265D+01
   2   4   1   1   3   4  0.00000000000000D+00  0.00000000000000D+00
   3   4   1   1   3   4  0.00000000000000D+00  0.00000000000000D+00
   1   4   2   1   3   4  0.00000000000000D+00  0.00000000000000D+00
   2   4   2   1   3   4  0.44349696691270D+03  0.85472336600265D+01
   3   4   2   1   3   4  0.00000000000000D+00  0.00000000000000D+00
   1   4   3   1   3   4  0.44349696691270D+03  0.85472336600265D+01
   2   4   3   1   3   4  0.44349696691270D+03  0.85472336600265D+01
   3   4   3   1   3   4 -0.88699394189562D+03 -0.37692872666187D-12
   1   4   1   2   3   4 -0.48263299365312D+03 -0.78617568552313D+01
   2   4   1   2   3   4  0.00000000000000D+00  0.00000000000000D+00
   3   4   1   2   3   4  0.00000000000000D+00  0.00000000000000D+00
   1   4   2   2   3   4  0.00000000000000D+00  0.00000000000000D+00
   2   4   2   2   3   4 -0.48263299365312D+03 -0.78617568552313D+01
   3   4   2   2   3   4  0.00000000000000D+00  0.00000000000000D+00
   1   4   3   2   3   4 -0.48263299365312D+03 -0.78617568552313D+01
   2   4   3   2   3   4 -0.48263299365312D+03 -0.78617568552313D+01
   3   4   3   2   3   4  0.96526599488785D+03 -0.11737486665413D-12
   1   1   1   4   3   4  0.14282047184299D+03 -0.31885822476287D+02
   2   1   1   4   3   4  0.00000000000000D+00  0.00000000000000D+00
   3   1   1   4   3   4  0.14282048248306D+03  0.65409642382295D+01
   1   2   1   4   3   4 -0.12481603626659D+03  0.71079709922327D+02
   2   2   1   4   3   4  0.00000000000000D+00  0.00000000000000D+00
   3   2   1   4   3   4 -0.12481603628914D+03 -0.51063256581150D+02
   1   4   1   4   3   4 -0.26234661014501D+04 -0.13952676980619D+05
   2   4   1   4   3   4  0.26234661003424D+04  0.15049948118194D+05
   3   4   1   4   3   4 -0.26234661008697D+04  0.41283996005071D+04
   1   1   2   4   3   4  0.00000000000000D+00  0.00000000000000D+00
   2   1   2   4   3   4  0.14282047184299D+03 -0.31885822476287D+02
   3   1   2   4   3   4  0.14282048248306D+03  0.65409642382295D+01
   1   2   2   4   3   4  0.00000000000000D+00  0.00000000000000D+00
   2   2   2   4   3   4 -0.12481603626659D+03  0.71079709922327D+02
   3   2   2   4   3   4 -0.12481603628914D+03 -0.51063256581150D+02
   1   4   2   4   3   4  0.26234660983007D+04  0.46918403294770D+04
   2   4   2   4   3   4 -0.26234661029114D+04 -0.62297081882104D+04
   3   4   2   4   3   4 -0.26234661010055D+04 -0.22239255294517D+05
   1   1   3   4   3   4  0.00000000000000D+00  0.00000000000000D+00
   2   1   3   4   3   4  0.00000000000000D+00  0.00000000000000D+00
   3   1   3   4   3   4 -0.28564097868394D+03  0.78760701170127D+02
   1   2   3   4   3   4  0.00000000000000D+00  0.00000000000000D+00
   2   2   3   4   3   4  0.00000000000000D+00  0.00000000000000D+00
   3   2   3   4   3   4  0.24963206772595D+03 -0.33488252907873D+03
   1   4   3   4   3   4 -0.26234661029114D+04 -0.62297081882104D+04
   2   4   3   4   3   4 -0.26234661014501D+04 -0.13952676980619D+05
   3   4   3   4   3   4  0.78703983027449D+04  0.13982456093503D+05

 List of bloks and their characteristics 
  
 2nd derivatives (non-stat.)  - # elements :     171
 qpt  0.00000000E+00  0.00000000E+00  0.00000000E+00   1.0
  
 3rd derivatives              - # elements :     189
 qpt  0.00000000E+00  0.00000000E+00  0.00000000E+00   1.0
      0.00000000E+00  0.00000000E+00  0.00000000E+00   1.0
      0.00000000E+00  0.00000000E+00  0.00000000E+00   1.0
