
.Version 9.2.2 of ABINIT 
.(MPI version, prepared for a arm_darwin20.2.0_gnu10.2 computer) 

.Copyright (C) 1998-2020 ABINIT group . 
 ABINIT comes with ABSOLUTELY NO WARRANTY.
 It is free software, and you are welcome to redistribute it
 under certain conditions (GNU General Public License,
 see ~abinit/COPYING or http://www.gnu.org/copyleft/gpl.txt).

 ABINIT is a project of the Universite Catholique de Louvain,
 Corning Inc. and other collaborators, see ~abinit/doc/developers/contributors.txt .
 Please read https://docs.abinit.org/theory/acknowledgments for suggested
 acknowledgments of the ABINIT effort.
 For more information, see https://www.abinit.org .

.Starting date : Mon  8 Mar 2021.
- ( at 15h18 )
  
- input  file    -> BS_1.abi
- output file    -> BS_1.abo
- root for input  files -> BS_1i
- root for output files -> BS_1o


 DATASET    1 : space group F-4 3 m (#216); Bravais cF (face-center cubic)
================================================================================
 Values of the parameters that define the memory need for DATASET  1.
     intxc =       0    ionmov =       0      iscf =       7    lmnmax =       6
     lnmax =       6     mgfft =      40  mpssoang =       3    mqgrid =    3001
     natom =       2  nloc_mem =       1    nspden =       1   nspinor =       1
    nsppol =       1      nsym =      24    n1xccc =       0    ntypat =       2
    occopt =       1   xclevel =       1
-    mband =           5        mffmem =           1         mkmem =           2
       mpw =        2613          nfft =       64000          nkpt =          10
================================================================================
P This job should need less than                      19.436 Mbytes of memory.
  Rough estimation (10% accuracy) of disk space for files :
_ WF disk file :      1.996 Mbytes ; DEN or POT disk file :      0.490 Mbytes.
================================================================================


 DATASET    2 : space group F-4 3 m (#216); Bravais cF (face-center cubic)
================================================================================
 Values of the parameters that define the memory need for DATASET  2.
     intxc =       0    ionmov =       0      iscf =      -2    lmnmax =       6
     lnmax =       6     mgfft =      40  mpssoang =       3    mqgrid =    3001
     natom =       2  nloc_mem =       1    nspden =       1   nspinor =       1
    nsppol =       1      nsym =      24    n1xccc =       0    ntypat =       2
    occopt =       1   xclevel =       1
-    mband =           8        mffmem =           1         mkmem =          48
       mpw =        2645          nfft =       64000          nkpt =         379
================================================================================
P This job should need less than                      28.583 Mbytes of memory.
  Rough estimation (10% accuracy) of disk space for files :
_ WF disk file :    122.372 Mbytes ; DEN or POT disk file :      0.490 Mbytes.
================================================================================

--------------------------------------------------------------------------------
------------- Echo of variables that govern the present computation ------------
--------------------------------------------------------------------------------
-
- outvars: echo of selected default values                                      
-   iomode0 =  0 , fftalg0 =312 , wfoptalg0 =  0
-
- outvars: echo of global parameters not present in the input file              
-  max_nthreads =    8
-
 -outvars: echo values of preprocessed input variables --------
            acell      1.1992657950E+01  1.1992657950E+01  1.1992657950E+01 Bohr
              amu      1.14820000E+02  1.21753000E+02
             ecut      2.50000000E+01 Hartree
           enunit1          0
           enunit2          1
-          fftalg         312
           getden1          0
           getden2         -1
             iscf1          7
             iscf2         -2
           istwfk2       3    0    0    0    0    0    0    0    0    0
                         0    0    0    0    0    0    0    0    0    0
                         0    0    0    0    0    0    0    0    0    0
                         0    0    0    0    0    0    0    0    0    0
                         0    0    0    0    0    0    0    0    0    0
                       outvar_i_n : Printing only first  50 k-points.
           jdtset        1    2
              kpt1    -1.25000000E-01 -2.50000000E-01  0.00000000E+00
                      -1.25000000E-01  5.00000000E-01  0.00000000E+00
                      -2.50000000E-01 -3.75000000E-01  0.00000000E+00
                      -1.25000000E-01 -3.75000000E-01  1.25000000E-01
                      -1.25000000E-01  2.50000000E-01  0.00000000E+00
                      -2.50000000E-01  3.75000000E-01  0.00000000E+00
                      -3.75000000E-01  5.00000000E-01  0.00000000E+00
                      -2.50000000E-01  5.00000000E-01  1.25000000E-01
                      -1.25000000E-01  0.00000000E+00  0.00000000E+00
                      -3.75000000E-01  0.00000000E+00  0.00000000E+00
              kpt2     5.00000000E-01  0.00000000E+00  0.00000000E+00
                       4.95000000E-01  0.00000000E+00  0.00000000E+00
                       4.90000000E-01  0.00000000E+00  0.00000000E+00
                       4.85000000E-01  0.00000000E+00  0.00000000E+00
                       4.80000000E-01  0.00000000E+00  0.00000000E+00
                       4.75000000E-01  0.00000000E+00  0.00000000E+00
                       4.70000000E-01  0.00000000E+00  0.00000000E+00
                       4.65000000E-01  0.00000000E+00  0.00000000E+00
                       4.60000000E-01  0.00000000E+00  0.00000000E+00
                       4.55000000E-01  0.00000000E+00  0.00000000E+00
                       4.50000000E-01  0.00000000E+00  0.00000000E+00
                       4.45000000E-01  0.00000000E+00  0.00000000E+00
                       4.40000000E-01  0.00000000E+00  0.00000000E+00
                       4.35000000E-01  0.00000000E+00  0.00000000E+00
                       4.30000000E-01  0.00000000E+00  0.00000000E+00
                       4.25000000E-01  0.00000000E+00  0.00000000E+00
                       4.20000000E-01  0.00000000E+00  0.00000000E+00
                       4.15000000E-01  0.00000000E+00  0.00000000E+00
                       4.10000000E-01  0.00000000E+00  0.00000000E+00
                       4.05000000E-01  0.00000000E+00  0.00000000E+00
                       4.00000000E-01  0.00000000E+00  0.00000000E+00
                       3.95000000E-01  0.00000000E+00  0.00000000E+00
                       3.90000000E-01  0.00000000E+00  0.00000000E+00
                       3.85000000E-01  0.00000000E+00  0.00000000E+00
                       3.80000000E-01  0.00000000E+00  0.00000000E+00
                       3.75000000E-01  0.00000000E+00  0.00000000E+00
                       3.70000000E-01  0.00000000E+00  0.00000000E+00
                       3.65000000E-01  0.00000000E+00  0.00000000E+00
                       3.60000000E-01  0.00000000E+00  0.00000000E+00
                       3.55000000E-01  0.00000000E+00  0.00000000E+00
                       3.50000000E-01  0.00000000E+00  0.00000000E+00
                       3.45000000E-01  0.00000000E+00  0.00000000E+00
                       3.40000000E-01  0.00000000E+00  0.00000000E+00
                       3.35000000E-01  0.00000000E+00  0.00000000E+00
                       3.30000000E-01  0.00000000E+00  0.00000000E+00
                       3.25000000E-01  0.00000000E+00  0.00000000E+00
                       3.20000000E-01  0.00000000E+00  0.00000000E+00
                       3.15000000E-01  0.00000000E+00  0.00000000E+00
                       3.10000000E-01  0.00000000E+00  0.00000000E+00
                       3.05000000E-01  0.00000000E+00  0.00000000E+00
                       3.00000000E-01  0.00000000E+00  0.00000000E+00
                       2.95000000E-01  0.00000000E+00  0.00000000E+00
                       2.90000000E-01  0.00000000E+00  0.00000000E+00
                       2.85000000E-01  0.00000000E+00  0.00000000E+00
                       2.80000000E-01  0.00000000E+00  0.00000000E+00
                       2.75000000E-01  0.00000000E+00  0.00000000E+00
                       2.70000000E-01  0.00000000E+00  0.00000000E+00
                       2.65000000E-01  0.00000000E+00  0.00000000E+00
                       2.60000000E-01  0.00000000E+00  0.00000000E+00
                       2.55000000E-01  0.00000000E+00  0.00000000E+00
                       outvar_i_n : Printing only first  50 k-points.
           kptopt1          1
           kptopt2         -3
         kptrlatt        4   -4    4     -4    4    4     -4   -4    4
          kptrlen1     4.79706318E+01
          kptrlen2     3.00000000E+01
P           mkmem1          2
P           mkmem2         48
            natom           2
            nband1          5
            nband2          8
           nbdbuf1          0
           nbdbuf2          2
           ndtset           2
           ndivsm1          0
           ndivsm2        100
            ngfft          40      40      40
             nkpt1         10
             nkpt2        379
            nstep         100
             nsym          24
           ntypat           2
              occ      2.000000  2.000000  2.000000  2.000000  0.000000
            rprim      0.0000000000E+00  5.0000000000E-01  5.0000000000E-01
                       5.0000000000E-01  0.0000000000E+00  5.0000000000E-01
                       5.0000000000E-01  5.0000000000E-01  0.0000000000E+00
           shiftk      5.00000000E-01  5.00000000E-01  5.00000000E-01
          spgroup         216
           symrel      1  0  0   0  1  0   0  0  1       0 -1  1   0 -1  0   1 -1  0
                      -1  0  0  -1  0  1  -1  1  0       0  1 -1   1  0 -1   0  0 -1
                      -1  0  0  -1  1  0  -1  0  1       0 -1  1   1 -1  0   0 -1  0
                       1  0  0   0  0  1   0  1  0       0  1 -1   0  0 -1   1  0 -1
                      -1  0  1  -1  1  0  -1  0  0       0 -1  0   1 -1  0   0 -1  1
                       1  0 -1   0  0 -1   0  1 -1       0  1  0   0  0  1   1  0  0
                       1  0 -1   0  1 -1   0  0 -1       0 -1  0   0 -1  1   1 -1  0
                      -1  0  1  -1  0  0  -1  1  0       0  1  0   1  0  0   0  0  1
                       0  0 -1   0  1 -1   1  0 -1       1 -1  0   0 -1  1   0 -1  0
                       0  0  1   1  0  0   0  1  0      -1  1  0  -1  0  0  -1  0  1
                       0  0  1   0  1  0   1  0  0       1 -1  0   0 -1  0   0 -1  1
                       0  0 -1   1  0 -1   0  1 -1      -1  1  0  -1  0  1  -1  0  0
           tolvrs1     1.00000000E-12
           tolvrs2     0.00000000E+00
           tolwfr1     0.00000000E+00
           tolwfr2     1.00000000E-16
            typat      1  2
              wtk1       0.09375    0.09375    0.09375    0.18750    0.09375    0.09375
                         0.09375    0.18750    0.03125    0.03125
              wtk2       1.00000    1.00000    1.00000    1.00000    1.00000    1.00000
                         1.00000    1.00000    1.00000    1.00000    1.00000    1.00000
                         1.00000    1.00000    1.00000    1.00000    1.00000    1.00000
                         1.00000    1.00000    1.00000    1.00000    1.00000    1.00000
                         1.00000    1.00000    1.00000    1.00000    1.00000    1.00000
                         1.00000    1.00000    1.00000    1.00000    1.00000    1.00000
                         1.00000    1.00000    1.00000    1.00000    1.00000    1.00000
                         1.00000    1.00000    1.00000    1.00000    1.00000    1.00000
                         1.00000    1.00000
                       outvars : Printing only first  50 k-points.
           xangst      0.0000000000E+00  0.0000000000E+00  0.0000000000E+00
                       1.5865603144E+00  1.5865603144E+00  1.5865603144E+00
            xcart      0.0000000000E+00  0.0000000000E+00  0.0000000000E+00
                       2.9981644875E+00  2.9981644875E+00  2.9981644875E+00
             xred      0.0000000000E+00  0.0000000000E+00  0.0000000000E+00
                       2.5000000000E-01  2.5000000000E-01  2.5000000000E-01
            znucl       49.00000   51.00000

================================================================================

 chkinp: Checking input parameters for consistency, jdtset=   1.

 chkinp: Checking input parameters for consistency, jdtset=   2.

================================================================================
== DATASET  1 ==================================================================
-   mpi_nproc: 8, omp_nthreads: 8 (-1 if OMP is not activated)
-    --> not optimal distribution: autoparal keyword recommended in input file <--


--- !DatasetInfo
iteration_state: {dtset: 1, }
dimensions: {natom: 2, nkpt: 10, mband: 5, nsppol: 1, nspinor: 1, nspden: 1, mpw: 2613, }
cutoff_energies: {ecut:  25.0, pawecutdg:  -1.0, }
electrons: {nelect:   8.00000000E+00, charge:   0.00000000E+00, occopt:   1.00000000E+00, tsmear:   1.00000000E-02, }
meta: {optdriver: 0, ionmov: 0, optcell: 0, iscf: 7, paral_kgb: 0, }
...

 Exchange-correlation functional for the present dataset will be:
  LDA: new Teter (4/93) with spin-polarized option - ixc=1
 Citation for XC functional:
  S. Goedecker, M. Teter, J. Huetter, PRB 54, 1703 (1996)

 Real(R)+Recip(G) space primitive vectors, cartesian coordinates (Bohr,Bohr^-1):
 R(1)=  0.0000000  5.9963290  5.9963290  G(1)= -0.0833844  0.0833844  0.0833844
 R(2)=  5.9963290  0.0000000  5.9963290  G(2)=  0.0833844 -0.0833844  0.0833844
 R(3)=  5.9963290  5.9963290  0.0000000  G(3)=  0.0833844  0.0833844 -0.0833844
 Unit cell volume ucvol=  4.3120754E+02 bohr^3
 Angles (23,13,12)=  6.00000000E+01  6.00000000E+01  6.00000000E+01 degrees

 getcut: wavevector=  0.0000  0.0000  0.0000  ngfft=  40  40  40
         ecut(hartree)=     25.000   => boxcut(ratio)=   2.09568

--- Pseudopotential description ------------------------------------------------
- pspini: atom type   1  psp file is /Users/lassi/Desktop/abinit_InSb/simulations/pseudos/49in.3.hgh
- pspatm: opening atomic psp file    /Users/lassi/Desktop/abinit_InSb/simulations/pseudos/49in.3.hgh
- Hartwigsen-Goedecker-Hutter psp for In,  from PRB58, 3641 (1998)
- 49.00000   3.00000     10605                znucl, zion, pspdat
    3    1    2    0      2001   0.00000      pspcod,pspxc,lmax,lloc,mmax,r2well
 rloc=   0.6100000
 cc1 =   2.8657770; cc2 =   0.0000000; cc3 =   0.0000000; cc4 =   0.0000000
 rrs =   0.7706020; h11s=   1.2561940; h22s=  -0.3972550; h33s=  -0.2783290
 rrp =   0.8581320; h11p=   0.4944590; h22p=  -0.3807890; h33p=   0.0000000
                    k11p=   0.0663670; k22p=  -0.0055630; k33p=   0.0000000
 rrd =   1.0886910; h11d=   0.1292080; h22d=   0.0000000; h33d=   0.0000000
                    k11d=   0.0044480; k22d=   0.0000000; k33d=   0.0000000
-  Local part computed in reciprocal space.

 pspatm : COMMENT -
  the projectors are not normalized,
  so that the KB energies are not consistent with 
  definition in PRB44, 8503 (1991). 
  However, this does not influence the results obtained hereafter.
  pspatm : epsatm=   17.25867767
         --- l  ekb(1:nproj) -->
             0   -0.872822   -0.248925    2.063593
             1   -1.350798    1.725815
             2    3.321137
 pspatm: atomic psp has been read  and splines computed

- pspini: atom type   2  psp file is /Users/lassi/Desktop/abinit_InSb/simulations/pseudos/51sb.5.hgh
- pspatm: opening atomic psp file    /Users/lassi/Desktop/abinit_InSb/simulations/pseudos/51sb.5.hgh
- Hartwigsen-Goedecker-Hutter psp for Sb,  from PRB58, 3641 (1998)
- 51.00000   5.00000     10605                znucl, zion, pspdat
    3    1    2    0      2001   0.00000      pspcod,pspxc,lmax,lloc,mmax,r2well
 rloc=   0.5900000
 cc1 =   6.6802280; cc2 =   0.0000000; cc3 =   0.0000000; cc4 =   0.0000000
 rrs =   0.5976840; h11s=   1.9514770; h22s=   0.0375370; h33s=  -0.7866310
 rrp =   0.6721220; h11p=   0.9703130; h22p=  -0.4667310; h33p=   0.0000000
                    k11p=   0.1392220; k22p=   0.0235130; k33p=   0.0000000
 rrd =   0.8565570; h11d=   0.3001030; h22d=   0.0000000; h33d=   0.0000000
                    k11d=   0.0094320; k22d=   0.0000000; k33d=   0.0000000
-  Local part computed in reciprocal space.

 pspatm : COMMENT -
  the projectors are not normalized,
  so that the KB energies are not consistent with 
  definition in PRB44, 8503 (1991). 
  However, this does not influence the results obtained hereafter.
  pspatm : epsatm=   32.54401099
         --- l  ekb(1:nproj) -->
             0   -0.778424    0.200340    1.488128
             1   -0.479727    0.969445
             2    1.439558
 pspatm: atomic psp has been read  and splines computed

   3.98421509E+02                                ecore*ucvol(ha*bohr**3)
--------------------------------------------------------------------------------

_setup2: Arith. and geom. avg. npw (full set) are    2574.406    2574.387

================================================================================

--- !BeginCycle
iteration_state: {dtset: 1, }
solver: {iscf: 7, nstep: 100, nline: 4, wfoptalg: 0, }
tolerances: {tolvrs: 1.00E-12, }
...

     iter   Etot(hartree)      deltaE(h)  residm     vres2
 ETOT  1  -7.6636144243099    -7.664E+00 5.740E-02 1.220E+02
 ETOT  2  -7.6830941418276    -1.948E-02 1.179E-04 5.591E+00
 ETOT  3  -7.6834756627799    -3.815E-04 4.324E-05 5.789E-01
 ETOT  4  -7.6835184978283    -4.284E-05 8.542E-06 5.973E-03
 ETOT  5  -7.6835188182870    -3.205E-07 8.242E-07 6.282E-05
 ETOT  6  -7.6835188222314    -3.944E-09 1.183E-07 3.177E-07
 ETOT  7  -7.6835188222547    -2.322E-11 1.366E-08 1.859E-08
 ETOT  8  -7.6835188222554    -7.887E-13 2.213E-09 1.123E-09
 ETOT  9  -7.6835188222555    -4.796E-14 2.763E-10 1.084E-11
 ETOT 10  -7.6835188222554     4.619E-14 4.396E-11 1.116E-13

 At SCF step   10       vres2   =  1.12E-13 < tolvrs=  1.00E-12 =>converged.

 Cartesian components of stress tensor (hartree/bohr^3)
  sigma(1 1)=  1.40787814E-07  sigma(3 2)=  0.00000000E+00
  sigma(2 2)=  1.40787814E-07  sigma(3 1)=  0.00000000E+00
  sigma(3 3)=  1.40787814E-07  sigma(2 1)=  0.00000000E+00


--- !ResultsGS
iteration_state: {dtset: 1, }
comment   : Summary of ground state results
lattice_vectors:
- [  0.0000000,   5.9963290,   5.9963290, ]
- [  5.9963290,   0.0000000,   5.9963290, ]
- [  5.9963290,   5.9963290,   0.0000000, ]
lattice_lengths: [   8.48009,    8.48009,    8.48009, ]
lattice_angles: [ 60.000,  60.000,  60.000, ] # degrees, (23, 13, 12)
lattice_volume:   4.3120754E+02
convergence: {deltae:  4.619E-14, res2:  1.116E-13, residm:  4.396E-11, diffor: null, }
etotal    :  -7.68351882E+00
entropy   :   0.00000000E+00
fermie    :   2.29298825E-02
cartesian_stress_tensor: # hartree/bohr^3
- [  1.40787814E-07,   0.00000000E+00,   0.00000000E+00, ]
- [  0.00000000E+00,   1.40787814E-07,   0.00000000E+00, ]
- [  0.00000000E+00,   0.00000000E+00,   1.40787814E-07, ]
pressure_GPa:  -4.1421E-03
xred      :
- [  0.0000E+00,   0.0000E+00,   0.0000E+00, In]
- [  2.5000E-01,   2.5000E-01,   2.5000E-01, Sb]
cartesian_forces: # hartree/bohr
- [ -0.00000000E+00,  -0.00000000E+00,  -0.00000000E+00, ]
- [ -0.00000000E+00,  -0.00000000E+00,  -0.00000000E+00, ]
force_length_stats: {min:   0.00000000E+00, max:   0.00000000E+00, mean:   0.00000000E+00, }
...

 Integrated electronic density in atomic spheres:
 ------------------------------------------------
 Atom  Sphere_radius  Integrated_density
    1        2.00000          0.67731768
    2        2.00000          1.55098705
================================================================================

 ----iterations are completed or convergence reached----

 Mean square residual over all n,k,spin=   94.542E-14; max=  43.958E-12
 reduced coordinates (array xred) for    2 atoms
       0.000000000000      0.000000000000      0.000000000000
       0.250000000000      0.250000000000      0.250000000000
 rms dE/dt=  0.0000E+00; max dE/dt=  0.0000E+00; dE/dt below (all hartree)
    1       0.000000000000      0.000000000000      0.000000000000
    2       0.000000000000      0.000000000000      0.000000000000

 cartesian coordinates (angstrom) at end:
    1      0.00000000000000     0.00000000000000     0.00000000000000
    2      1.58656031438892     1.58656031438892     1.58656031438892

 cartesian forces (hartree/bohr) at end:
    1     -0.00000000000000    -0.00000000000000    -0.00000000000000
    2     -0.00000000000000    -0.00000000000000    -0.00000000000000
 frms,max,avg= 0.0000000E+00 0.0000000E+00   0.000E+00  0.000E+00  0.000E+00 h/b

 cartesian forces (eV/Angstrom) at end:
    1     -0.00000000000000    -0.00000000000000    -0.00000000000000
    2     -0.00000000000000    -0.00000000000000    -0.00000000000000
 frms,max,avg= 0.0000000E+00 0.0000000E+00   0.000E+00  0.000E+00  0.000E+00 e/A
 length scales= 11.992657950000 11.992657950000 11.992657950000 bohr
              =  6.346241257556  6.346241257556  6.346241257556 angstroms
 prteigrs : about to open file BS_1o_DS1_EIG
 Fermi (or HOMO) energy (hartree) =   0.02293   Average Vxc (hartree)=  -0.28592
 Eigenvalues (hartree) for nkpt=  10  k points:
 kpt#   1, nband=  5, wtk=  0.09375, kpt= -0.1250 -0.2500  0.0000 (reduced coord)
  -0.35715   -0.09069   -0.00837   -0.00741    0.10709
 prteigrs : prtvol=0 or 1, do not print more k-points.


--- !EnergyTerms
iteration_state     : {dtset: 1, }
comment             : Components of total free energy in Hartree
kinetic             :  2.54585027819946E+00
hartree             :  6.21050442859550E-01
xc                  : -2.13587413552964E+00
Ewald energy        : -7.50223138068864E+00
psp_core            :  9.23966927624370E-01
local_psp           : -2.33658895939025E+00
non_local_psp       :  2.00308004669689E-01
total_energy        : -7.68351882225545E+00
total_energy_eV     : -2.09079180067928E+02
band_energy         : -1.13168713097610E+00
...


 Cartesian components of stress tensor (hartree/bohr^3)
  sigma(1 1)=  1.40787814E-07  sigma(3 2)=  0.00000000E+00
  sigma(2 2)=  1.40787814E-07  sigma(3 1)=  0.00000000E+00
  sigma(3 3)=  1.40787814E-07  sigma(2 1)=  0.00000000E+00

-Cartesian components of stress tensor (GPa)         [Pressure= -4.1421E-03 GPa]
- sigma(1 1)=  4.14211981E-03  sigma(3 2)=  0.00000000E+00
- sigma(2 2)=  4.14211981E-03  sigma(3 1)=  0.00000000E+00
- sigma(3 3)=  4.14211981E-03  sigma(2 1)=  0.00000000E+00

================================================================================
== DATASET  2 ==================================================================
-   mpi_nproc: 8, omp_nthreads: 8 (-1 if OMP is not activated)


--- !DatasetInfo
iteration_state: {dtset: 2, }
dimensions: {natom: 2, nkpt: 379, mband: 8, nsppol: 1, nspinor: 1, nspden: 1, mpw: 2645, }
cutoff_energies: {ecut:  25.0, pawecutdg:  -1.0, }
electrons: {nelect:   8.00000000E+00, charge:   0.00000000E+00, occopt:   1.00000000E+00, tsmear:   1.00000000E-02, }
meta: {optdriver: 0, ionmov: 0, optcell: 0, iscf: -2, paral_kgb: 0, }
...

 mkfilename : getden/=0, take file _DEN from output of DATASET   1.

 Exchange-correlation functional for the present dataset will be:
  LDA: new Teter (4/93) with spin-polarized option - ixc=1
 Citation for XC functional:
  S. Goedecker, M. Teter, J. Huetter, PRB 54, 1703 (1996)

 Real(R)+Recip(G) space primitive vectors, cartesian coordinates (Bohr,Bohr^-1):
 R(1)=  0.0000000  5.9963290  5.9963290  G(1)= -0.0833844  0.0833844  0.0833844
 R(2)=  5.9963290  0.0000000  5.9963290  G(2)=  0.0833844 -0.0833844  0.0833844
 R(3)=  5.9963290  5.9963290  0.0000000  G(3)=  0.0833844  0.0833844 -0.0833844
 Unit cell volume ucvol=  4.3120754E+02 bohr^3
 Angles (23,13,12)=  6.00000000E+01  6.00000000E+01  6.00000000E+01 degrees

 getcut: wavevector=  0.0000  0.0000  0.0000  ngfft=  40  40  40
         ecut(hartree)=     25.000   => boxcut(ratio)=   2.09568
--------------------------------------------------------------------------------


================================================================================
 prteigrs : about to open file BS_1o_DS2_EIG
 Non-SCF case, kpt    1 (  0.50000  0.00000  0.00000), residuals and eigenvalues=
  2.02E-17  1.85E-17  7.36E-17  5.05E-17  9.38E-17  7.15E-17  9.17E-17  2.76E-13
 -3.2465E-01 -1.8500E-01 -7.8467E-03 -7.8467E-03  5.7004E-02  1.7530E-01
  1.7530E-01  2.6237E-01
  prteigrs : nnsclo,ikpt=  100    1 max resid (incl. the buffer)=  2.75707E-13
 Non-SCF case, kpt    2 (  0.49500  0.00000  0.00000), residuals and eigenvalues=
  5.14E-17  1.04E-17  9.75E-17  5.72E-17  6.88E-17  4.85E-17  7.35E-17  2.35E-15
 -3.2467E-01 -1.8496E-01 -7.8400E-03 -7.8400E-03  5.7011E-02  1.7531E-01
  1.7531E-01  2.6238E-01
  prteigrs : nnsclo,ikpt=  100    2 max resid (incl. the buffer)=  2.34622E-15
 Non-SCF case, kpt    3 (  0.49000  0.00000  0.00000), residuals and eigenvalues=
  5.73E-17  1.01E-17  2.35E-17  5.90E-17  6.87E-17  4.23E-17  7.64E-17  2.47E-15
 -3.2473E-01 -1.8483E-01 -7.8198E-03 -7.8198E-03  5.7029E-02  1.7532E-01
  1.7532E-01  2.6240E-01
  prteigrs : nnsclo,ikpt=  100    3 max resid (incl. the buffer)=  2.47245E-15
 Non-SCF case, kpt    4 (  0.48500  0.00000  0.00000), residuals and eigenvalues=
  7.38E-17  1.98E-17  2.28E-17  5.17E-17  1.47E-17  6.02E-17  4.37E-17  2.71E-14
 -3.2484E-01 -1.8463E-01 -7.7863E-03 -7.7863E-03  5.7060E-02  1.7533E-01
  1.7533E-01  2.6244E-01
  prteigrs : nnsclo,ikpt=  100    4 max resid (incl. the buffer)=  2.71261E-14
 Non-SCF case, kpt    5 (  0.48000  0.00000  0.00000), residuals and eigenvalues=
  3.84E-17  3.89E-17  6.67E-17  8.66E-17  6.01E-17  1.47E-17  4.28E-17  6.25E-12
 -3.2499E-01 -1.8434E-01 -7.7393E-03 -7.7393E-03  5.7103E-02  1.7535E-01
  1.7535E-01  2.6249E-01
  prteigrs : nnsclo,ikpt=  100    5 max resid (incl. the buffer)=  6.25081E-12
 Non-SCF case, kpt    6 (  0.47500  0.00000  0.00000), residuals and eigenvalues=
  9.46E-17  4.52E-17  1.90E-17  1.51E-17  4.30E-17  2.24E-17  6.61E-17  2.15E-13
 -3.2518E-01 -1.8397E-01 -7.6790E-03 -7.6790E-03  5.7159E-02  1.7538E-01
  1.7538E-01  2.6256E-01
  prteigrs : nnsclo,ikpt=  100    6 max resid (incl. the buffer)=  2.14623E-13
 Non-SCF case, kpt    7 (  0.47000  0.00000  0.00000), residuals and eigenvalues=
  1.41E-17  2.76E-17  4.62E-17  2.55E-17  1.94E-17  4.62E-17  2.33E-17  1.47E-14
 -3.2542E-01 -1.8352E-01 -7.6052E-03 -7.6052E-03  5.7227E-02  1.7541E-01
  1.7541E-01  2.6264E-01
  prteigrs : nnsclo,ikpt=  100    7 max resid (incl. the buffer)=  1.46790E-14
 Non-SCF case, kpt    8 (  0.46500  0.00000  0.00000), residuals and eigenvalues=
  1.44E-17  2.87E-17  4.63E-17  2.46E-17  2.15E-17  5.57E-17  6.80E-17  2.44E-14
 -3.2569E-01 -1.8300E-01 -7.5181E-03 -7.5181E-03  5.7308E-02  1.7545E-01
  1.7545E-01  2.6273E-01
  prteigrs : nnsclo,ikpt=  100    8 max resid (incl. the buffer)=  2.44426E-14
 Non-SCF case, kpt    9 (  0.46000  0.00000  0.00000), residuals and eigenvalues=
  5.52E-17  7.02E-17  9.39E-17  2.04E-17  8.96E-18  4.35E-17  5.16E-17  3.83E-13
 -3.2600E-01 -1.8239E-01 -7.4177E-03 -7.4177E-03  5.7400E-02  1.7549E-01
  1.7549E-01  2.6284E-01
  prteigrs : nnsclo,ikpt=  100    9 max resid (incl. the buffer)=  3.82988E-13
 Non-SCF case, kpt   10 (  0.45500  0.00000  0.00000), residuals and eigenvalues=
  4.96E-17  6.96E-17  8.98E-17  2.04E-17  1.13E-17  5.75E-17  3.14E-17  6.67E-13
 -3.2636E-01 -1.8171E-01 -7.3039E-03 -7.3039E-03  5.7505E-02  1.7554E-01
  1.7554E-01  2.6296E-01
  prteigrs : nnsclo,ikpt=  100   10 max resid (incl. the buffer)=  6.67160E-13
 Non-SCF case, kpt   11 (  0.45000  0.00000  0.00000), residuals and eigenvalues=
  4.44E-17  7.02E-17  8.64E-17  2.05E-17  1.39E-17  6.66E-17  2.00E-17  1.17E-12
 -3.2674E-01 -1.8095E-01 -7.1768E-03 -7.1768E-03  5.7622E-02  1.7560E-01
  1.7560E-01  2.6309E-01
  prteigrs : nnsclo,ikpt=  100   11 max resid (incl. the buffer)=  1.16563E-12
 Non-SCF case, kpt   12 (  0.44500  0.00000  0.00000), residuals and eigenvalues=
  3.96E-17  7.22E-17  8.37E-17  2.05E-17  1.64E-17  5.37E-17  4.07E-17  2.08E-12
 -3.2717E-01 -1.8011E-01 -7.0365E-03 -7.0365E-03  5.7752E-02  1.7565E-01
  1.7565E-01  2.6323E-01
  prteigrs : nnsclo,ikpt=  100   12 max resid (incl. the buffer)=  2.08277E-12
 Non-SCF case, kpt   13 (  0.44000  0.00000  0.00000), residuals and eigenvalues=
  3.54E-17  7.63E-17  8.18E-17  2.06E-17  1.87E-17  3.49E-17  9.40E-17  3.42E-12
 -3.2763E-01 -1.7921E-01 -6.8830E-03 -6.8830E-03  5.7893E-02  1.7571E-01
  1.7571E-01  2.6338E-01
  prteigrs : nnsclo,ikpt=  100   13 max resid (incl. the buffer)=  3.41924E-12
 Non-SCF case, kpt   14 (  0.43500  0.00000  0.00000), residuals and eigenvalues=
  3.20E-17  8.36E-17  8.04E-17  2.08E-17  2.06E-17  3.54E-17  2.06E-17  6.39E-12
 -3.2812E-01 -1.7823E-01 -6.7164E-03 -6.7164E-03  5.8047E-02  1.7578E-01
  1.7578E-01  2.6354E-01
  prteigrs : nnsclo,ikpt=  100   14 max resid (incl. the buffer)=  6.38577E-12
 Non-SCF case, kpt   15 (  0.43000  0.00000  0.00000), residuals and eigenvalues=
  2.94E-17  9.54E-17  7.96E-17  2.10E-17  2.21E-17  7.64E-17  2.97E-17  1.06E-11
 -3.2864E-01 -1.7718E-01 -6.5366E-03 -6.5366E-03  5.8213E-02  1.7584E-01
  1.7584E-01  2.6370E-01
  prteigrs : nnsclo,ikpt=  100   15 max resid (incl. the buffer)=  1.05885E-11
 Non-SCF case, kpt   16 (  0.42500  0.00000  0.00000), residuals and eigenvalues=
  5.79E-17  3.13E-17  1.96E-17  6.47E-17  5.11E-17  2.63E-17  5.54E-17  1.53E-11
 -3.2919E-01 -1.7607E-01 -6.3437E-03 -6.3437E-03  5.8390E-02  1.7591E-01
  1.7591E-01  2.6386E-01
  prteigrs : nnsclo,ikpt=  100   16 max resid (incl. the buffer)=  1.52950E-11
 Non-SCF case, kpt   17 (  0.42000  0.00000  0.00000), residuals and eigenvalues=
  7.31E-17  2.58E-17  1.54E-17  4.22E-17  4.89E-17  3.25E-17  5.44E-17  8.00E-11
 -3.2977E-01 -1.7488E-01 -6.1379E-03 -6.1379E-03  5.8580E-02  1.7599E-01
  1.7599E-01  2.6402E-01
  prteigrs : nnsclo,ikpt=  100   17 max resid (incl. the buffer)=  8.00394E-11
 Non-SCF case, kpt   18 (  0.41500  0.00000  0.00000), residuals and eigenvalues=
  6.56E-17  1.62E-17  8.26E-18  1.77E-17  4.38E-17  4.25E-17  4.24E-17  3.96E-11
 -3.3037E-01 -1.7364E-01 -5.9191E-03 -5.9191E-03  5.8782E-02  1.7606E-01
  1.7606E-01  2.6417E-01
  prteigrs : nnsclo,ikpt=  100   18 max resid (incl. the buffer)=  3.95953E-11
 Non-SCF case, kpt   19 (  0.41000  0.00000  0.00000), residuals and eigenvalues=
  7.72E-18  2.11E-17  5.84E-17  2.85E-17  7.55E-17  5.99E-17  8.78E-17  8.91E-12
 -3.3100E-01 -1.7233E-01 -5.6874E-03 -5.6874E-03  5.8995E-02  1.7613E-01
  1.7613E-01  2.6431E-01
  prteigrs : nnsclo,ikpt=  100   19 max resid (incl. the buffer)=  8.90753E-12
 Non-SCF case, kpt   20 (  0.40500  0.00000  0.00000), residuals and eigenvalues=
  2.93E-17  3.05E-17  5.86E-17  2.08E-17  3.74E-17  9.72E-17  4.99E-17  1.27E-10
 -3.3166E-01 -1.7095E-01 -5.4430E-03 -5.4430E-03  5.9220E-02  1.7620E-01
  1.7620E-01  2.6444E-01
  prteigrs : nnsclo,ikpt=  100   20 max resid (incl. the buffer)=  1.26771E-10
 Non-SCF case, kpt   21 (  0.40000  0.00000  0.00000), residuals and eigenvalues=
  2.12E-17  7.77E-17  1.08E-17  9.53E-18  6.67E-17  5.84E-17  5.38E-17  1.21E-09
 -3.3233E-01 -1.6952E-01 -5.1857E-03 -5.1857E-03  5.9457E-02  1.7627E-01
  1.7627E-01  2.6455E-01
  prteigrs : nnsclo,ikpt=  100   21 max resid (incl. the buffer)=  1.21475E-09
 Non-SCF case, kpt   22 (  0.39500  0.00000  0.00000), residuals and eigenvalues=
  2.14E-17  8.03E-17  9.26E-18  8.24E-18  6.67E-17  8.30E-17  1.22E-17  2.13E-09
 -3.3302E-01 -1.6804E-01 -4.9159E-03 -4.9159E-03  5.9705E-02  1.7634E-01
  1.7634E-01  2.6463E-01
  prteigrs : nnsclo,ikpt=  100   22 max resid (incl. the buffer)=  2.12793E-09
 Non-SCF case, kpt   23 (  0.39000  0.00000  0.00000), residuals and eigenvalues=
  2.65E-17  1.68E-17  7.99E-17  2.20E-17  5.43E-17  8.13E-17  4.72E-17  4.07E-11
 -3.3373E-01 -1.6649E-01 -4.6334E-03 -4.6334E-03  5.9965E-02  1.7641E-01
  1.7641E-01  2.6466E-01
  prteigrs : nnsclo,ikpt=  100   23 max resid (incl. the buffer)=  4.07385E-11
 Non-SCF case, kpt   24 (  0.38500  0.00000  0.00000), residuals and eigenvalues=
  2.82E-17  1.87E-17  5.49E-17  2.07E-17  4.92E-17  9.72E-17  5.31E-17  9.62E-11
 -3.3446E-01 -1.6489E-01 -4.3384E-03 -4.3384E-03  6.0236E-02  1.7647E-01
  1.7647E-01  2.6464E-01
  prteigrs : nnsclo,ikpt=  100   24 max resid (incl. the buffer)=  9.62283E-11
 Non-SCF case, kpt   25 (  0.38000  0.00000  0.00000), residuals and eigenvalues=
  2.97E-17  1.39E-17  2.36E-17  6.32E-17  5.36E-17  6.98E-17  1.01E-15  5.22E-09
 -3.3520E-01 -1.6324E-01 -4.0311E-03 -4.0311E-03  6.0518E-02  1.7653E-01
  1.7653E-01  2.6456E-01
  prteigrs : nnsclo,ikpt=  100   25 max resid (incl. the buffer)=  5.21948E-09
 Non-SCF case, kpt   26 (  0.37500  0.00000  0.00000), residuals and eigenvalues=
  1.50E-17  2.30E-17  2.04E-17  9.89E-17  5.63E-17  3.25E-17  5.36E-17  1.77E-09
 -3.3596E-01 -1.6154E-01 -3.7115E-03 -3.7115E-03  6.0811E-02  1.7659E-01
  1.7659E-01  2.6440E-01
  prteigrs : nnsclo,ikpt=  100   26 max resid (incl. the buffer)=  1.76607E-09
 Non-SCF case, kpt   27 (  0.37000  0.00000  0.00000), residuals and eigenvalues=
  1.48E-17  2.55E-17  8.27E-17  7.98E-17  4.31E-17  3.79E-17  5.29E-17  2.98E-09
 -3.3673E-01 -1.5978E-01 -3.3797E-03 -3.3797E-03  6.1115E-02  1.7663E-01
  1.7663E-01  2.6413E-01
  prteigrs : nnsclo,ikpt=  100   27 max resid (incl. the buffer)=  2.97774E-09
 Non-SCF case, kpt   28 (  0.36500  0.00000  0.00000), residuals and eigenvalues=
  1.42E-17  2.83E-17  5.95E-17  6.19E-17  3.15E-17  3.76E-17  4.39E-17  4.73E-09
 -3.3751E-01 -1.5798E-01 -3.0359E-03 -3.0359E-03  6.1429E-02  1.7667E-01
  1.7667E-01  2.6373E-01
  prteigrs : nnsclo,ikpt=  100   28 max resid (incl. the buffer)=  4.73304E-09
 Non-SCF case, kpt   29 (  0.36000  0.00000  0.00000), residuals and eigenvalues=
  1.34E-17  3.13E-17  3.99E-17  4.63E-17  2.21E-17  2.56E-17  9.47E-17  6.96E-09
 -3.3830E-01 -1.5613E-01 -2.6801E-03 -2.6801E-03  6.1755E-02  1.7670E-01
  1.7670E-01  2.6319E-01
  prteigrs : nnsclo,ikpt=  100   29 max resid (incl. the buffer)=  6.95650E-09
 Non-SCF case, kpt   30 (  0.35500  0.00000  0.00000), residuals and eigenvalues=
  1.71E-17  1.59E-17  1.51E-17  5.66E-17  4.91E-17  8.12E-17  2.04E-17  1.10E-08
 -3.3909E-01 -1.5424E-01 -2.3125E-03 -2.3125E-03  6.2090E-02  1.7673E-01
  1.7673E-01  2.6247E-01
  prteigrs : nnsclo,ikpt=  100   30 max resid (incl. the buffer)=  1.10052E-08
 Non-SCF case, kpt   31 (  0.35000  0.00000  0.00000), residuals and eigenvalues=
  1.83E-17  1.37E-17  1.32E-17  4.01E-17  4.57E-17  5.49E-17  5.01E-17  1.42E-08
 -3.3989E-01 -1.5230E-01 -1.9332E-03 -1.9332E-03  6.2436E-02  1.7674E-01
  1.7674E-01  2.6157E-01
  prteigrs : nnsclo,ikpt=  100   31 max resid (incl. the buffer)=  1.41614E-08
 Non-SCF case, kpt   32 (  0.34500  0.00000  0.00000), residuals and eigenvalues=
  1.83E-17  1.63E-17  2.18E-17  4.70E-17  2.18E-17  9.73E-17  8.27E-17  2.03E-08
 -3.4070E-01 -1.5032E-01 -1.5423E-03 -1.5423E-03  6.2792E-02  1.7673E-01
  1.7673E-01  2.6046E-01
  prteigrs : nnsclo,ikpt=  100   32 max resid (incl. the buffer)=  2.03392E-08
 Non-SCF case, kpt   33 (  0.34000  0.00000  0.00000), residuals and eigenvalues=
  2.04E-17  6.81E-18  2.27E-17  1.96E-17  1.24E-17  6.33E-17  8.34E-17  5.87E-08
 -3.4152E-01 -1.4830E-01 -1.1401E-03 -1.1401E-03  6.3157E-02  1.7672E-01
  1.7672E-01  2.5915E-01
  prteigrs : nnsclo,ikpt=  100   33 max resid (incl. the buffer)=  5.87306E-08
 Non-SCF case, kpt   34 (  0.33500  0.00000  0.00000), residuals and eigenvalues=
  2.39E-17  9.57E-18  1.81E-17  1.51E-17  1.14E-17  3.61E-17  3.71E-17  5.19E-08
 -3.4233E-01 -1.4624E-01 -7.2660E-04 -7.2660E-04  6.3532E-02  1.7669E-01
  1.7669E-01  2.5763E-01
  prteigrs : nnsclo,ikpt=  100   34 max resid (incl. the buffer)=  5.19465E-08
 Non-SCF case, kpt   35 (  0.33000  0.00000  0.00000), residuals and eigenvalues=
  2.88E-17  1.89E-17  1.52E-17  1.23E-17  1.12E-17  6.32E-17  2.36E-17  3.97E-08
 -3.4315E-01 -1.4414E-01 -3.0205E-04 -3.0205E-04  6.3916E-02  1.7665E-01
  1.7665E-01  2.5593E-01
  prteigrs : nnsclo,ikpt=  100   35 max resid (incl. the buffer)=  3.97425E-08
 Non-SCF case, kpt   36 (  0.32500  0.00000  0.00000), residuals and eigenvalues=
  3.47E-17  3.33E-17  1.34E-17  8.93E-17  1.14E-17  6.68E-17  3.99E-17  2.63E-08
 -3.4397E-01 -1.4201E-01  1.3341E-04  1.3341E-04  6.4308E-02  1.7659E-01
  1.7659E-01  2.5405E-01
  prteigrs : nnsclo,ikpt=  100   36 max resid (incl. the buffer)=  2.63251E-08
 Non-SCF case, kpt   37 (  0.32000  0.00000  0.00000), residuals and eigenvalues=
  4.21E-17  2.63E-17  1.99E-17  4.11E-17  3.38E-17  6.30E-17  5.67E-17  6.37E-09
 -3.4479E-01 -1.3983E-01  5.7960E-04  5.7960E-04  6.4709E-02  1.7651E-01
  1.7651E-01  2.5203E-01
  prteigrs : nnsclo,ikpt=  100   37 max resid (incl. the buffer)=  6.36929E-09
 Non-SCF case, kpt   38 (  0.31500  0.00000  0.00000), residuals and eigenvalues=
  2.72E-17  9.32E-18  6.40E-17  1.37E-17  6.13E-17  8.87E-17  2.73E-17  1.04E-09
 -3.4561E-01 -1.3762E-01  1.0363E-03  1.0363E-03  6.5118E-02  1.7641E-01
  1.7641E-01  2.4989E-01
  prteigrs : nnsclo,ikpt=  100   38 max resid (incl. the buffer)=  1.03721E-09
 Non-SCF case, kpt   39 (  0.31000  0.00000  0.00000), residuals and eigenvalues=
  2.71E-17  1.00E-17  6.97E-17  1.46E-17  5.28E-17  8.65E-17  2.46E-17  4.61E-10
 -3.4643E-01 -1.3538E-01  1.5034E-03  1.5034E-03  6.5535E-02  1.7629E-01
  1.7629E-01  2.4763E-01
  prteigrs : nnsclo,ikpt=  100   39 max resid (incl. the buffer)=  4.61384E-10
 Non-SCF case, kpt   40 (  0.30500  0.00000  0.00000), residuals and eigenvalues=
  2.65E-17  1.04E-17  7.55E-17  1.58E-17  4.64E-17  8.11E-17  2.11E-17  1.96E-10
 -3.4724E-01 -1.3310E-01  1.9805E-03  1.9805E-03  6.5959E-02  1.7615E-01
  1.7615E-01  2.4530E-01
  prteigrs : nnsclo,ikpt=  100   40 max resid (incl. the buffer)=  1.96281E-10
 Non-SCF case, kpt   41 (  0.30000  0.00000  0.00000), residuals and eigenvalues=
  2.57E-17  1.04E-17  8.22E-17  1.71E-17  4.29E-17  7.30E-17  1.66E-17  8.14E-11
 -3.4806E-01 -1.3079E-01  2.4676E-03  2.4676E-03  6.6390E-02  1.7599E-01
  1.7599E-01  2.4289E-01
  prteigrs : nnsclo,ikpt=  100   41 max resid (incl. the buffer)=  8.13791E-11
 Non-SCF case, kpt   42 (  0.29500  0.00000  0.00000), residuals and eigenvalues=
  2.48E-17  1.01E-17  9.09E-17  1.87E-17  4.29E-17  6.30E-17  9.13E-17  3.34E-11
 -3.4886E-01 -1.2845E-01  2.9644E-03  2.9644E-03  6.6828E-02  1.7581E-01
  1.7581E-01  2.4043E-01
  prteigrs : nnsclo,ikpt=  100   42 max resid (incl. the buffer)=  3.34436E-11
 Non-SCF case, kpt   43 (  0.29000  0.00000  0.00000), residuals and eigenvalues=
  2.96E-17  1.88E-17  4.25E-17  1.76E-17  1.31E-17  3.88E-17  9.29E-17  1.62E-09
 -3.4967E-01 -1.2608E-01  3.4705E-03  3.4705E-03  6.7271E-02  1.7560E-01
  1.7560E-01  2.3793E-01
  prteigrs : nnsclo,ikpt=  100   43 max resid (incl. the buffer)=  1.61730E-09
 Non-SCF case, kpt   44 (  0.28500  0.00000  0.00000), residuals and eigenvalues=
  1.97E-17  2.10E-17  4.35E-17  3.92E-17  2.37E-17  7.28E-17  8.15E-17  8.60E-11
 -3.5047E-01 -1.2368E-01  3.9859E-03  3.9859E-03  6.7719E-02  1.7536E-01
  1.7536E-01  2.3539E-01
  prteigrs : nnsclo,ikpt=  100   44 max resid (incl. the buffer)=  8.59636E-11
 Non-SCF case, kpt   45 (  0.28000  0.00000  0.00000), residuals and eigenvalues=
  2.30E-17  1.07E-17  4.50E-17  2.06E-17  8.92E-18  8.21E-17  9.79E-17  7.70E-11
 -3.5126E-01 -1.2125E-01  4.5101E-03  4.5101E-03  6.8171E-02  1.7510E-01
  1.7510E-01  2.3282E-01
  prteigrs : nnsclo,ikpt=  100   45 max resid (incl. the buffer)=  7.70261E-11
 Non-SCF case, kpt   46 (  0.27500  0.00000  0.00000), residuals and eigenvalues=
  2.77E-17  1.11E-17  3.93E-17  2.06E-17  8.52E-18  4.00E-17  5.74E-17  2.35E-11
 -3.5205E-01 -1.1879E-01  5.0430E-03  5.0430E-03  6.8628E-02  1.7482E-01
  1.7482E-01  2.3024E-01
  prteigrs : nnsclo,ikpt=  100   46 max resid (incl. the buffer)=  2.35390E-11
 Non-SCF case, kpt   47 (  0.27000  0.00000  0.00000), residuals and eigenvalues=
  3.76E-17  1.13E-17  3.66E-17  2.19E-17  8.17E-18  2.24E-17  2.79E-17  7.83E-12
 -3.5283E-01 -1.1631E-01  5.5842E-03  5.5842E-03  6.9087E-02  1.7450E-01
  1.7450E-01  2.2764E-01
  prteigrs : nnsclo,ikpt=  100   47 max resid (incl. the buffer)=  7.83143E-12
 Non-SCF case, kpt   48 (  0.26500  0.00000  0.00000), residuals and eigenvalues=
  4.52E-17  1.14E-17  3.61E-17  2.45E-17  7.89E-18  6.23E-17  7.12E-17  2.81E-12
 -3.5360E-01 -1.1380E-01  6.1335E-03  6.1335E-03  6.9549E-02  1.7416E-01
  1.7416E-01  2.2503E-01
  prteigrs : nnsclo,ikpt=  100   48 max resid (incl. the buffer)=  2.81383E-12
 Non-SCF case, kpt   49 (  0.26000  0.00000  0.00000), residuals and eigenvalues=
  1.16E-17  3.38E-17  1.70E-17  4.33E-17  1.25E-17  2.81E-17  8.72E-17  1.57E-12
 -3.5436E-01 -1.1126E-01  6.6904E-03  6.6904E-03  7.0012E-02  1.7379E-01
  1.7379E-01  2.2242E-01
  prteigrs : nnsclo,ikpt=  100   49 max resid (incl. the buffer)=  1.57468E-12
 Non-SCF case, kpt   50 (  0.25500  0.00000  0.00000), residuals and eigenvalues=
  8.70E-17  2.29E-17  1.12E-17  5.47E-17  8.09E-17  9.41E-17  4.96E-17  1.66E-12
 -3.5512E-01 -1.0871E-01  7.2547E-03  7.2547E-03  7.0475E-02  1.7339E-01
  1.7339E-01  2.1981E-01
  prteigrs : nnsclo,ikpt=  100   50 max resid (incl. the buffer)=  1.65931E-12
 Non-SCF case, kpt   51 (  0.25000  0.00000  0.00000), residuals and eigenvalues=
  8.66E-17  2.23E-17  1.14E-17  5.41E-17  9.47E-17  6.19E-17  3.29E-17  8.26E-13
 -3.5587E-01 -1.0612E-01  7.8261E-03  7.8261E-03  7.0937E-02  1.7296E-01
  1.7296E-01  2.1720E-01
  prteigrs : nnsclo,ikpt=  100   51 max resid (incl. the buffer)=  8.26215E-13
 Non-SCF case, kpt   52 (  0.24500  0.00000  0.00000), residuals and eigenvalues=
  2.95E-17  4.28E-17  9.95E-17  3.56E-17  5.53E-17  2.30E-17  7.61E-17  1.39E-13
 -3.5660E-01 -1.0352E-01  8.4040E-03  8.4040E-03  7.1397E-02  1.7251E-01
  1.7251E-01  2.1460E-01
  prteigrs : nnsclo,ikpt=  100   52 max resid (incl. the buffer)=  1.39195E-13
 Non-SCF case, kpt   53 (  0.24000  0.00000  0.00000), residuals and eigenvalues=
  2.82E-17  3.65E-17  1.78E-17  4.41E-17  6.60E-17  7.46E-17  2.41E-17  7.28E-14
 -3.5733E-01 -1.0089E-01  8.9882E-03  8.9882E-03  7.1855E-02  1.7203E-01
  1.7203E-01  2.1200E-01
  prteigrs : nnsclo,ikpt=  100   53 max resid (incl. the buffer)=  7.27510E-14
 Non-SCF case, kpt   54 (  0.23500  0.00000  0.00000), residuals and eigenvalues=
  2.73E-17  3.13E-17  1.72E-17  5.13E-17  8.64E-17  2.16E-17  2.50E-17  3.80E-14
 -3.5805E-01 -9.8238E-02  9.5783E-03  9.5783E-03  7.2307E-02  1.7151E-01
  1.7151E-01  2.0941E-01
  prteigrs : nnsclo,ikpt=  100   54 max resid (incl. the buffer)=  3.79662E-14
 Non-SCF case, kpt   55 (  0.23000  0.00000  0.00000), residuals and eigenvalues=
  2.67E-17  2.72E-17  1.64E-17  5.51E-17  9.43E-17  2.33E-17  2.20E-17  2.00E-14
 -3.5875E-01 -9.5567E-02  1.0174E-02  1.0174E-02  7.2753E-02  1.7098E-01
  1.7098E-01  2.0684E-01
  prteigrs : nnsclo,ikpt=  100   55 max resid (incl. the buffer)=  2.00401E-14
 Non-SCF case, kpt   56 (  0.22500  0.00000  0.00000), residuals and eigenvalues=
  8.03E-17  4.13E-17  2.30E-17  1.46E-17  9.92E-17  5.50E-17  1.20E-17  9.94E-15
 -3.5945E-01 -9.2877E-02  1.0774E-02  1.0774E-02  7.3192E-02  1.7041E-01
  1.7041E-01  2.0428E-01
  prteigrs : nnsclo,ikpt=  100   56 max resid (incl. the buffer)=  9.93550E-15
 Non-SCF case, kpt   57 (  0.22000  0.00000  0.00000), residuals and eigenvalues=
  1.94E-17  3.98E-17  1.92E-17  1.47E-17  7.54E-18  5.41E-17  2.02E-17  5.92E-15
 -3.6013E-01 -9.0167E-02  1.1379E-02  1.1379E-02  7.3620E-02  1.6982E-01
  1.6982E-01  2.0174E-01
  prteigrs : nnsclo,ikpt=  100   57 max resid (incl. the buffer)=  5.92320E-15
 Non-SCF case, kpt   58 (  0.21500  0.00000  0.00000), residuals and eigenvalues=
  2.79E-17  2.72E-17  5.30E-17  3.15E-17  5.53E-17  2.91E-17  5.30E-17  1.52E-16
 -3.6080E-01 -8.7439E-02  1.1988E-02  1.1988E-02  7.4038E-02  1.6921E-01
  1.6921E-01  1.9921E-01
  prteigrs : nnsclo,ikpt=  100   58 max resid (incl. the buffer)=  1.51619E-16
 Non-SCF case, kpt   59 (  0.21000  0.00000  0.00000), residuals and eigenvalues=
  2.84E-17  2.51E-17  5.47E-17  3.19E-17  4.65E-17  3.65E-17  5.96E-17  1.08E-16
 -3.6146E-01 -8.4693E-02  1.2601E-02  1.2601E-02  7.4441E-02  1.6857E-01
  1.6857E-01  1.9671E-01
  prteigrs : nnsclo,ikpt=  100   59 max resid (incl. the buffer)=  1.07670E-16
 Non-SCF case, kpt   60 (  0.20500  0.00000  0.00000), residuals and eigenvalues=
  4.26E-17  7.87E-17  1.58E-17  6.17E-18  1.46E-17  4.01E-17  2.12E-17  1.18E-14
 -3.6211E-01 -8.1931E-02  1.3216E-02  1.3216E-02  7.4828E-02  1.6791E-01
  1.6791E-01  1.9423E-01
  prteigrs : nnsclo,ikpt=  100   60 max resid (incl. the buffer)=  1.18334E-14
 Non-SCF case, kpt   61 (  0.20000  0.00000  0.00000), residuals and eigenvalues=
  3.88E-17  8.15E-17  1.91E-17  8.18E-18  2.28E-17  7.40E-17  8.33E-17  6.94E-15
 -3.6274E-01 -7.9151E-02  1.3834E-02  1.3834E-02  7.5197E-02  1.6723E-01
  1.6723E-01  1.9178E-01
  prteigrs : nnsclo,ikpt=  100   61 max resid (incl. the buffer)=  6.94285E-15
 Non-SCF case, kpt   62 (  0.19500  0.00000  0.00000), residuals and eigenvalues=
  3.53E-17  8.39E-17  6.17E-17  1.99E-17  3.68E-17  3.18E-17  6.04E-17  4.28E-15
 -3.6336E-01 -7.6357E-02  1.4453E-02  1.4453E-02  7.5544E-02  1.6652E-01
  1.6652E-01  1.8936E-01
  prteigrs : nnsclo,ikpt=  100   62 max resid (incl. the buffer)=  4.27725E-15
 Non-SCF case, kpt   63 (  0.19000  0.00000  0.00000), residuals and eigenvalues=
  1.95E-17  7.30E-17  3.67E-17  2.75E-17  9.66E-17  4.46E-17  3.10E-17  3.72E-15
 -3.6397E-01 -7.3547E-02  1.5074E-02  1.5074E-02  7.5868E-02  1.6580E-01
  1.6580E-01  1.8696E-01
  prteigrs : nnsclo,ikpt=  100   63 max resid (incl. the buffer)=  3.71836E-15
 Non-SCF case, kpt   64 (  0.18500  0.00000  0.00000), residuals and eigenvalues=
  1.93E-17  7.88E-17  3.75E-17  2.76E-17  1.20E-17  4.65E-17  4.00E-17  4.24E-15
 -3.6457E-01 -7.0723E-02  1.5696E-02  1.5696E-02  7.6163E-02  1.6507E-01
  1.6507E-01  1.8461E-01
  prteigrs : nnsclo,ikpt=  100   64 max resid (incl. the buffer)=  4.24040E-15
 Non-SCF case, kpt   65 (  0.18000  0.00000  0.00000), residuals and eigenvalues=
  1.92E-17  8.36E-17  3.80E-17  2.73E-17  1.22E-17  4.43E-17  5.11E-17  3.38E-15
 -3.6515E-01 -6.7886E-02  1.6317E-02  1.6317E-02  7.6428E-02  1.6432E-01
  1.6432E-01  1.8228E-01
  prteigrs : nnsclo,ikpt=  100   65 max resid (incl. the buffer)=  3.38138E-15
 Non-SCF case, kpt   66 (  0.17500  0.00000  0.00000), residuals and eigenvalues=
  2.03E-17  8.74E-17  3.80E-17  2.68E-17  1.25E-17  4.13E-17  6.12E-17  2.52E-15
 -3.6572E-01 -6.5037E-02  1.6938E-02  1.6938E-02  7.6657E-02  1.6355E-01
  1.6355E-01  1.8000E-01
  prteigrs : nnsclo,ikpt=  100   66 max resid (incl. the buffer)=  2.52037E-15
 Non-SCF case, kpt   67 (  0.17000  0.00000  0.00000), residuals and eigenvalues=
  3.79E-17  6.24E-18  2.88E-17  2.11E-17  2.22E-17  1.90E-17  8.22E-17  5.58E-17
 -3.6627E-01 -6.2175E-02  1.7557E-02  1.7557E-02  7.6848E-02  1.6278E-01
  1.6278E-01  1.7776E-01
 Non-SCF case, kpt   68 (  0.16500  0.00000  0.00000), residuals and eigenvalues=
  3.60E-17  6.64E-18  2.69E-17  2.31E-17  1.51E-17  8.28E-17  6.03E-17  5.43E-17
 -3.6681E-01 -5.9303E-02  1.8174E-02  1.8174E-02  7.6996E-02  1.6200E-01
  1.6200E-01  1.7557E-01
 Non-SCF case, kpt   69 (  0.16000  0.00000  0.00000), residuals and eigenvalues=
  3.50E-17  7.02E-18  2.70E-17  2.48E-17  1.04E-17  9.36E-17  6.41E-17  5.94E-17
 -3.6733E-01 -5.6420E-02  1.8788E-02  1.8788E-02  7.7097E-02  1.6121E-01
  1.6121E-01  1.7343E-01
 Non-SCF case, kpt   70 (  0.15500  0.00000  0.00000), residuals and eigenvalues=
  3.42E-17  6.97E-18  3.04E-17  2.58E-17  8.97E-18  9.34E-17  8.07E-17  6.66E-17
 -3.6784E-01 -5.3528E-02  1.9398E-02  1.9398E-02  7.7145E-02  1.6041E-01
  1.6041E-01  1.7135E-01
 Non-SCF case, kpt   71 (  0.15000  0.00000  0.00000), residuals and eigenvalues=
  9.03E-17  1.52E-17  1.85E-17  3.11E-17  2.92E-17  7.81E-17  3.86E-17  5.53E-17
 -3.6834E-01 -5.0628E-02  2.0003E-02  2.0003E-02  7.7136E-02  1.5961E-01
  1.5961E-01  1.6932E-01
 Non-SCF case, kpt   72 (  0.14500  0.00000  0.00000), residuals and eigenvalues=
  9.80E-17  9.63E-17  1.73E-17  3.32E-17  3.33E-17  6.92E-17  9.96E-17  4.83E-17
 -3.6882E-01 -4.7719E-02  2.0603E-02  2.0603E-02  7.7064E-02  1.5881E-01
  1.5881E-01  1.6735E-01
 Non-SCF case, kpt   73 (  0.14000  0.00000  0.00000), residuals and eigenvalues=
  2.28E-17  3.95E-17  7.22E-17  9.62E-17  5.18E-17  9.34E-17  9.25E-17  4.65E-17
 -3.6928E-01 -4.4804E-02  2.1197E-02  2.1197E-02  7.6925E-02  1.5801E-01
  1.5801E-01  1.6546E-01
 Non-SCF case, kpt   74 (  0.13500  0.00000  0.00000), residuals and eigenvalues=
  2.42E-17  4.14E-17  7.29E-17  5.78E-18  5.55E-17  3.50E-17  4.23E-17  2.56E-17
 -3.6973E-01 -4.1883E-02  2.1783E-02  2.1783E-02  7.6712E-02  1.5722E-01
  1.5722E-01  1.6363E-01
 Non-SCF case, kpt   75 (  0.13000  0.00000  0.00000), residuals and eigenvalues=
  2.52E-17  4.56E-17  7.55E-17  6.85E-18  5.95E-17  2.28E-17  5.20E-17  7.92E-17
 -3.7017E-01 -3.8957E-02  2.2361E-02  2.2361E-02  7.6421E-02  1.5643E-01
  1.5643E-01  1.6188E-01
 Non-SCF case, kpt   76 (  0.12500  0.00000  0.00000), residuals and eigenvalues=
  1.02E-17  5.06E-18  1.54E-17  9.83E-18  4.63E-17  8.69E-17  1.28E-16  6.64E-16
 -3.7059E-01 -3.6027E-02  2.2930E-02  2.2930E-02  7.6047E-02  1.5565E-01
  1.5565E-01  1.6021E-01
  prteigrs : nnsclo,ikpt=  100   76 max resid (incl. the buffer)=  6.63857E-16
 Non-SCF case, kpt   77 (  0.12000  0.00000  0.00000), residuals and eigenvalues=
  1.13E-17  6.55E-18  2.06E-17  1.23E-17  5.32E-17  5.32E-17  1.65E-16  6.83E-16
 -3.7099E-01 -3.3094E-02  2.3488E-02  2.3488E-02  7.5583E-02  1.5488E-01
  1.5488E-01  1.5862E-01
  prteigrs : nnsclo,ikpt=  100   77 max resid (incl. the buffer)=  6.82866E-16
 Non-SCF case, kpt   78 (  0.11500  0.00000  0.00000), residuals and eigenvalues=
  8.22E-17  6.26E-18  6.88E-17  3.54E-17  7.24E-17  4.78E-17  2.35E-17  6.40E-17
 -3.7138E-01 -3.0159E-02  2.4036E-02  2.4036E-02  7.5027E-02  1.5412E-01
  1.5412E-01  1.5711E-01
 Non-SCF case, kpt   79 (  0.11000  0.00000  0.00000), residuals and eigenvalues=
  7.86E-17  6.90E-18  5.32E-18  3.29E-17  8.71E-17  5.00E-17  9.28E-17  7.43E-17
 -3.7175E-01 -2.7223E-02  2.4571E-02  2.4571E-02  7.4373E-02  1.5337E-01
  1.5337E-01  1.5570E-01
 Non-SCF case, kpt   80 (  0.10500  0.00000  0.00000), residuals and eigenvalues=
  6.88E-17  4.58E-17  9.21E-17  5.64E-17  7.38E-17  2.47E-17  9.33E-17  4.43E-17
 -3.7211E-01 -2.4287E-02  2.5092E-02  2.5092E-02  7.3618E-02  1.5264E-01
  1.5264E-01  1.5438E-01
 Non-SCF case, kpt   81 (  0.10000  0.00000  0.00000), residuals and eigenvalues=
  1.11E-17  6.25E-17  4.35E-17  2.02E-17  5.53E-17  9.41E-17  8.91E-17  9.64E-17
 -3.7245E-01 -2.1353E-02  2.5599E-02  2.5599E-02  7.2760E-02  1.5193E-01
  1.5193E-01  1.5315E-01
 Non-SCF case, kpt   82 (  0.09500  0.00000  0.00000), residuals and eigenvalues=
  1.22E-17  7.53E-17  4.12E-17  2.31E-17  4.30E-17  8.29E-17  5.78E-17  6.76E-18
 -3.7277E-01 -1.8422E-02  2.6091E-02  2.6091E-02  7.1795E-02  1.5123E-01
  1.5123E-01  1.5201E-01
 Non-SCF case, kpt   83 (  0.09000  0.00000  0.00000), residuals and eigenvalues=
  2.73E-17  1.78E-17  3.56E-17  7.64E-17  4.65E-17  3.88E-17  3.82E-17  8.78E-17
 -3.7308E-01 -1.5494E-02  2.6566E-02  2.6566E-02  7.0724E-02  1.5056E-01
  1.5056E-01  1.5097E-01
 Non-SCF case, kpt   84 (  0.08500  0.00000  0.00000), residuals and eigenvalues=
  2.86E-17  2.80E-17  1.57E-17  1.89E-17  5.06E-17  2.27E-17  2.35E-17  2.81E-17
 -3.7337E-01 -1.2573E-02  2.7023E-02  2.7023E-02  6.9545E-02  1.4991E-01
  1.4991E-01  1.5002E-01
 Non-SCF case, kpt   85 (  0.08000  0.00000  0.00000), residuals and eigenvalues=
  2.93E-17  4.22E-17  1.44E-17  2.60E-17  5.23E-17  4.86E-17  3.45E-17  7.15E-17
 -3.7365E-01 -9.6578E-03  2.7461E-02  2.7461E-02  6.8260E-02  1.4915E-01
  1.4929E-01  1.4929E-01
 Non-SCF case, kpt   86 (  0.07500  0.00000  0.00000), residuals and eigenvalues=
  4.13E-17  9.35E-17  2.94E-17  2.61E-17  5.75E-17  9.88E-17  2.71E-17  7.75E-17
 -3.7391E-01 -6.7516E-03  2.7880E-02  2.7880E-02  6.6870E-02  1.4838E-01
  1.4870E-01  1.4870E-01
 Non-SCF case, kpt   87 (  0.07000  0.00000  0.00000), residuals and eigenvalues=
  4.21E-17  7.35E-18  3.00E-17  3.28E-17  2.10E-17  5.27E-17  5.86E-17  8.12E-17
 -3.7415E-01 -3.8557E-03  2.8277E-02  2.8277E-02  6.5377E-02  1.4769E-01
  1.4813E-01  1.4813E-01
 Non-SCF case, kpt   88 (  0.06500  0.00000  0.00000), residuals and eigenvalues=
  4.06E-17  9.55E-18  8.10E-18  6.33E-17  8.71E-17  3.56E-17  3.03E-17  7.91E-17
 -3.7437E-01 -9.7219E-04  2.8653E-02  2.8653E-02  6.3784E-02  1.4707E-01
  1.4760E-01  1.4760E-01
 Non-SCF case, kpt   89 (  0.06000  0.00000  0.00000), residuals and eigenvalues=
  3.94E-17  1.07E-17  8.68E-18  5.56E-17  8.45E-17  8.93E-17  2.64E-17  5.60E-17
 -3.7458E-01  1.8969E-03  2.9005E-02  2.9005E-02  6.2097E-02  1.4654E-01
  1.4710E-01  1.4710E-01
 Non-SCF case, kpt   90 (  0.05500  0.00000  0.00000), residuals and eigenvalues=
  3.64E-17  1.03E-17  6.04E-18  4.94E-17  3.80E-17  4.25E-17  3.35E-17  9.83E-17
 -3.7478E-01  4.7491E-03  2.9333E-02  2.9333E-02  6.0318E-02  1.4607E-01
  1.4663E-01  1.4663E-01
 Non-SCF case, kpt   91 (  0.05000  0.00000  0.00000), residuals and eigenvalues=
  3.49E-17  8.46E-17  8.38E-17  4.12E-17  3.47E-17  9.82E-17  3.12E-17  8.60E-17
 -3.7495E-01  7.5815E-03  2.9637E-02  2.9637E-02  5.8454E-02  1.4566E-01
  1.4620E-01  1.4620E-01
 Non-SCF case, kpt   92 (  0.04500  0.00000  0.00000), residuals and eigenvalues=
  4.84E-17  2.62E-17  2.69E-17  6.90E-17  3.73E-17  5.49E-17  4.74E-17  7.32E-18
 -3.7511E-01  1.0391E-02  2.9914E-02  2.9914E-02  5.6510E-02  1.4531E-01
  1.4580E-01  1.4580E-01
 Non-SCF case, kpt   93 (  0.04000  0.00000  0.00000), residuals and eigenvalues=
  5.01E-17  2.89E-17  4.39E-17  5.09E-17  3.26E-17  9.04E-17  3.68E-17  7.05E-18
 -3.7526E-01  1.3173E-02  3.0165E-02  3.0165E-02  5.4495E-02  1.4502E-01
  1.4544E-01  1.4544E-01
 Non-SCF case, kpt   94 (  0.03500  0.00000  0.00000), residuals and eigenvalues=
  5.15E-17  8.12E-17  5.11E-17  4.79E-17  2.49E-17  4.12E-17  6.80E-17  5.50E-17
 -3.7538E-01  1.5921E-02  3.0388E-02  3.0388E-02  5.2415E-02  1.4478E-01
  1.4512E-01  1.4512E-01
 Non-SCF case, kpt   95 (  0.03000  0.00000  0.00000), residuals and eigenvalues=
  5.28E-17  2.62E-17  5.03E-17  8.17E-17  1.62E-17  6.37E-17  3.27E-17  1.33E-17
 -3.7549E-01  1.8629E-02  3.0582E-02  3.0582E-02  5.0281E-02  1.4457E-01
  1.4485E-01  1.4485E-01
 Non-SCF case, kpt   96 (  0.02500  0.00000  0.00000), residuals and eigenvalues=
  5.36E-17  4.60E-17  4.69E-17  1.42E-17  6.14E-17  7.23E-17  9.16E-17  6.42E-17
 -3.7558E-01  2.1283E-02  3.0748E-02  3.0748E-02  4.8108E-02  1.4441E-01
  1.4461E-01  1.4461E-01
 Non-SCF case, kpt   97 (  0.02000  0.00000  0.00000), residuals and eigenvalues=
  5.38E-17  6.38E-17  4.22E-17  1.80E-17  7.39E-18  7.21E-17  3.24E-17  3.91E-17
 -3.7566E-01  2.3863E-02  3.0885E-02  3.0885E-02  4.5920E-02  1.4428E-01
  1.4442E-01  1.4442E-01
 Non-SCF case, kpt   98 (  0.01500  0.00000  0.00000), residuals and eigenvalues=
  5.34E-17  8.13E-17  3.00E-17  2.10E-17  1.77E-17  2.94E-17  2.72E-17  5.81E-17
 -3.7572E-01  2.6326E-02  3.0992E-02  3.0992E-02  4.3759E-02  1.4419E-01
  1.4426E-01  1.4426E-01
 Non-SCF case, kpt   99 (  0.01000  0.00000  0.00000), residuals and eigenvalues=
  5.27E-17  7.55E-17  1.89E-17  2.21E-17  7.15E-17  3.70E-17  1.60E-17  1.11E-17
 -3.7576E-01  2.8578E-02  3.1068E-02  3.1068E-02  4.1722E-02  1.4412E-01
  1.4415E-01  1.4415E-01
 Non-SCF case, kpt  100 (  0.00500  0.00000  0.00000), residuals and eigenvalues=
  5.30E-17  8.92E-17  2.63E-17  8.74E-18  4.43E-17  8.00E-17  8.20E-17  3.34E-17
 -3.7579E-01  3.0371E-02  3.1114E-02  3.1114E-02  4.0057E-02  1.4408E-01
  1.4409E-01  1.4409E-01
 Non-SCF case, kpt  101 (  0.00000  0.00000  0.00000), residuals and eigenvalues=
  2.09E-17  2.58E-17  8.47E-18  3.74E-17  8.96E-17  8.30E-17  5.62E-17  2.89E-17
 -3.7579E-01  3.1129E-02  3.1129E-02  3.1129E-02  3.9341E-02  1.4407E-01
  1.4407E-01  1.4407E-01
 Non-SCF case, kpt  102 (  0.00000  0.00435  0.00435), residuals and eigenvalues=
  5.80E-17  4.75E-17  7.13E-17  2.29E-17  6.85E-17  8.68E-17  5.48E-17  1.51E-17
 -3.7579E-01  3.0403E-02  3.1094E-02  3.1094E-02  4.0065E-02  1.4403E-01
  1.4411E-01  1.4411E-01
 Non-SCF case, kpt  103 (  0.00000  0.00870  0.00870), residuals and eigenvalues=
  5.70E-17  6.95E-17  1.09E-17  1.86E-17  7.02E-17  8.38E-17  6.59E-17  3.40E-17
 -3.7576E-01  2.8689E-02  3.0987E-02  3.0987E-02  4.1771E-02  1.4392E-01
  1.4426E-01  1.4426E-01
 Non-SCF case, kpt  104 (  0.00000  0.01304  0.01304), residuals and eigenvalues=
  5.28E-17  7.31E-17  1.21E-17  1.35E-17  7.17E-17  9.08E-17  7.17E-17  4.64E-17
 -3.7572E-01  2.6554E-02  3.0809E-02  3.0809E-02  4.3894E-02  1.4373E-01
  1.4449E-01  1.4449E-01
 Non-SCF case, kpt  105 (  0.00000  0.01739  0.01739), residuals and eigenvalues=
  4.88E-17  8.87E-17  1.44E-17  8.52E-17  5.44E-17  4.65E-17  4.72E-17  7.23E-17
 -3.7566E-01  2.4239E-02  3.0562E-02  3.0562E-02  4.6190E-02  1.4346E-01
  1.4483E-01  1.4483E-01
 Non-SCF case, kpt  106 (  0.00000  0.02174  0.02174), residuals and eigenvalues=
  4.60E-17  2.60E-17  1.80E-17  8.94E-18  6.10E-17  9.44E-17  6.38E-17  2.93E-17
 -3.7558E-01  2.1837E-02  3.0246E-02  3.0246E-02  4.8567E-02  1.4313E-01
  1.4525E-01  1.4525E-01
 Non-SCF case, kpt  107 (  0.00000  0.02609  0.02609), residuals and eigenvalues=
  4.48E-17  8.69E-17  1.22E-17  6.03E-18  5.24E-17  4.59E-17  4.23E-17  1.81E-17
 -3.7549E-01  1.9387E-02  2.9864E-02  2.9864E-02  5.0986E-02  1.4273E-01
  1.4576E-01  1.4576E-01
 Non-SCF case, kpt  108 (  0.00000  0.03043  0.03043), residuals and eigenvalues=
  4.49E-17  9.47E-17  3.66E-17  5.88E-18  2.80E-17  1.49E-17  9.13E-17  7.93E-17
 -3.7538E-01  1.6909E-02  2.9416E-02  2.9416E-02  5.3426E-02  1.4226E-01
  1.4636E-01  1.4636E-01
 Non-SCF case, kpt  109 (  0.00000  0.03478  0.03478), residuals and eigenvalues=
  4.55E-17  5.60E-17  1.66E-17  2.76E-17  9.92E-18  2.50E-17  2.37E-17  5.44E-17
 -3.7525E-01  1.4414E-02  2.8907E-02  2.8907E-02  5.5876E-02  1.4173E-01
  1.4705E-01  1.4705E-01
 Non-SCF case, kpt  110 (  0.00000  0.03913  0.03913), residuals and eigenvalues=
  4.66E-17  1.65E-17  7.08E-17  8.27E-18  2.69E-17  5.39E-17  7.16E-17  2.57E-17
 -3.7511E-01  1.1907E-02  2.8337E-02  2.8337E-02  5.8329E-02  1.4113E-01
  1.4782E-01  1.4782E-01
 Non-SCF case, kpt  111 (  0.00000  0.04348  0.04348), residuals and eigenvalues=
  4.55E-17  1.34E-17  5.67E-17  9.30E-17  3.28E-17  5.04E-17  7.84E-17  1.62E-17
 -3.7495E-01  9.3927E-03  2.7709E-02  2.7709E-02  6.0782E-02  1.4049E-01
  1.4867E-01  1.4867E-01
 Non-SCF case, kpt  112 (  0.00000  0.04783  0.04783), residuals and eigenvalues=
  7.98E-17  7.06E-17  1.71E-17  7.50E-17  2.21E-17  6.60E-17  9.01E-17  5.05E-17
 -3.7477E-01  6.8732E-03  2.7027E-02  2.7027E-02  6.3229E-02  1.3979E-01
  1.4961E-01  1.4961E-01
 Non-SCF case, kpt  113 (  0.00000  0.05217  0.05217), residuals and eigenvalues=
  7.90E-17  5.04E-17  1.31E-17  4.84E-17  3.08E-17  4.50E-17  3.24E-17  9.15E-17
 -3.7457E-01  4.3504E-03  2.6293E-02  2.6293E-02  6.5668E-02  1.3904E-01
  1.5061E-01  1.5061E-01
 Non-SCF case, kpt  114 (  0.00000  0.05652  0.05652), residuals and eigenvalues=
  7.04E-17  4.73E-17  3.47E-17  1.84E-17  4.62E-17  1.36E-17  4.82E-17  2.15E-17
 -3.7436E-01  1.8259E-03  2.5510E-02  2.5510E-02  6.8096E-02  1.3826E-01
  1.5169E-01  1.5169E-01
 Non-SCF case, kpt  115 (  0.00000  0.06087  0.06087), residuals and eigenvalues=
  8.48E-17  4.37E-17  1.49E-17  3.03E-17  3.82E-17  6.99E-17  7.48E-17  9.15E-17
 -3.7413E-01 -6.9952E-04  2.4681E-02  2.4681E-02  7.0511E-02  1.3743E-01
  1.5284E-01  1.5284E-01
 Non-SCF case, kpt  116 (  0.00000  0.06522  0.06522), residuals and eigenvalues=
  9.68E-17  3.63E-17  1.16E-17  2.76E-17  4.51E-17  4.63E-17  9.99E-17  4.25E-17
 -3.7389E-01 -3.2249E-03  2.3809E-02  2.3809E-02  7.2910E-02  1.3657E-01
  1.5405E-01  1.5405E-01
 Non-SCF case, kpt  117 (  0.00000  0.06957  0.06957), residuals and eigenvalues=
  3.39E-17  7.64E-17  3.48E-17  5.88E-18  4.76E-17  2.32E-17  8.33E-17  3.97E-17
 -3.7362E-01 -5.7496E-03  2.2896E-02  2.2896E-02  7.5291E-02  1.3568E-01
  1.5533E-01  1.5533E-01
 Non-SCF case, kpt  118 (  0.00000  0.07391  0.07391), residuals and eigenvalues=
  9.83E-17  6.72E-17  5.56E-17  7.69E-17  4.01E-17  4.90E-17  9.47E-16  1.73E-15
 -3.7335E-01 -8.2732E-03  2.1947E-02  2.1947E-02  7.7650E-02  1.3476E-01
  1.5667E-01  1.5667E-01
  prteigrs : nnsclo,ikpt=  100  118 max resid (incl. the buffer)=  1.72824E-15
 Non-SCF case, kpt  119 (  0.00000  0.07826  0.07826), residuals and eigenvalues=
  2.99E-17  3.74E-17  1.45E-17  8.42E-17  9.18E-17  6.31E-17  1.60E-17  4.47E-17
 -3.7305E-01 -1.0795E-02  2.0962E-02  2.0962E-02  7.9985E-02  1.3382E-01
  1.5807E-01  1.5807E-01
 Non-SCF case, kpt  120 (  0.00000  0.08261  0.08261), residuals and eigenvalues=
  2.61E-17  3.53E-17  8.28E-17  7.54E-17  9.88E-17  2.89E-17  2.09E-17  7.22E-17
 -3.7274E-01 -1.3315E-02  1.9947E-02  1.9947E-02  8.2292E-02  1.3287E-01
  1.5952E-01  1.5952E-01
 Non-SCF case, kpt  121 (  0.00000  0.08696  0.08696), residuals and eigenvalues=
  2.07E-17  1.32E-17  8.02E-17  4.18E-17  8.16E-17  1.55E-17  3.11E-14  6.24E-15
 -3.7241E-01 -1.5833E-02  1.8902E-02  1.8902E-02  8.4566E-02  1.3191E-01
  1.6102E-01  1.6102E-01
  prteigrs : nnsclo,ikpt=  100  121 max resid (incl. the buffer)=  3.10820E-14
 Non-SCF case, kpt  122 (  0.00000  0.09130  0.09130), residuals and eigenvalues=
  3.97E-17  3.93E-17  3.94E-17  3.38E-17  2.39E-17  2.33E-17  1.56E-14  7.47E-15
 -3.7206E-01 -1.8347E-02  1.7830E-02  1.7830E-02  8.6804E-02  1.3094E-01
  1.6258E-01  1.6258E-01
  prteigrs : nnsclo,ikpt=  100  122 max resid (incl. the buffer)=  1.56110E-14
 Non-SCF case, kpt  123 (  0.00000  0.09565  0.09565), residuals and eigenvalues=
  1.50E-17  6.79E-17  6.85E-17  8.67E-17  6.00E-17  1.67E-17  1.37E-14  9.82E-15
 -3.7170E-01 -2.0859E-02  1.6734E-02  1.6734E-02  8.8999E-02  1.2998E-01
  1.6418E-01  1.6418E-01
  prteigrs : nnsclo,ikpt=  100  123 max resid (incl. the buffer)=  1.37393E-14
 Non-SCF case, kpt  124 (  0.00000  0.10000  0.10000), residuals and eigenvalues=
  1.34E-17  7.65E-17  5.63E-17  6.89E-17  6.72E-17  1.43E-17  1.02E-14  1.26E-14
 -3.7132E-01 -2.3368E-02  1.5617E-02  1.5617E-02  9.1145E-02  1.2902E-01
  1.6582E-01  1.6582E-01
  prteigrs : nnsclo,ikpt=  100  124 max resid (incl. the buffer)=  1.25549E-14
 Non-SCF case, kpt  125 (  0.00000  0.10435  0.10435), residuals and eigenvalues=
  1.25E-17  9.27E-17  4.35E-17  5.17E-17  8.13E-17  7.95E-17  5.21E-15  1.40E-14
 -3.7093E-01 -2.5873E-02  1.4480E-02  1.4480E-02  9.3235E-02  1.2808E-01
  1.6751E-01  1.6751E-01
  prteigrs : nnsclo,ikpt=  100  125 max resid (incl. the buffer)=  1.39879E-14
 Non-SCF case, kpt  126 (  0.00000  0.10870  0.10870), residuals and eigenvalues=
  1.21E-17  1.17E-17  9.02E-17  3.66E-17  1.07E-17  5.72E-17  9.80E-15  5.55E-15
 -3.7051E-01 -2.8375E-02  1.3325E-02  1.3325E-02  9.5256E-02  1.2716E-01
  1.6924E-01  1.6924E-01
  prteigrs : nnsclo,ikpt=  100  126 max resid (incl. the buffer)=  9.80300E-15
 Non-SCF case, kpt  127 (  0.00000  0.11304  0.11304), residuals and eigenvalues=
  9.61E-17  6.76E-17  3.92E-17  4.57E-17  8.16E-17  4.80E-17  3.12E-14  4.98E-14
 -3.7009E-01 -3.0873E-02  1.2156E-02  1.2156E-02  9.7198E-02  1.2628E-01
  1.7100E-01  1.7100E-01
  prteigrs : nnsclo,ikpt=  100  127 max resid (incl. the buffer)=  4.98038E-14
 Non-SCF case, kpt  128 (  0.00000  0.11739  0.11739), residuals and eigenvalues=
  9.84E-17  5.87E-17  5.36E-17  3.93E-17  8.95E-17  5.84E-17  4.71E-14  7.60E-14
 -3.6964E-01 -3.3367E-02  1.0972E-02  1.0972E-02  9.9043E-02  1.2546E-01
  1.7281E-01  1.7281E-01
  prteigrs : nnsclo,ikpt=  100  128 max resid (incl. the buffer)=  7.59868E-14
 Non-SCF case, kpt  129 (  0.00000  0.12174  0.12174), residuals and eigenvalues=
  1.66E-17  5.00E-17  3.65E-17  3.33E-17  9.43E-17  5.87E-17  7.44E-14  1.28E-13
 -3.6918E-01 -3.5857E-02  9.7774E-03  9.7774E-03  1.0077E-01  1.2471E-01
  1.7464E-01  1.7464E-01
  prteigrs : nnsclo,ikpt=  100  129 max resid (incl. the buffer)=  1.28481E-13
 Non-SCF case, kpt  130 (  0.00000  0.12609  0.12609), residuals and eigenvalues=
  1.69E-17  4.25E-17  2.47E-17  2.65E-17  9.66E-17  5.55E-17  1.25E-13  2.38E-13
 -3.6871E-01 -3.8342E-02  8.5725E-03  8.5725E-03  1.0235E-01  1.2405E-01
  1.7651E-01  1.7651E-01
  prteigrs : nnsclo,ikpt=  100  130 max resid (incl. the buffer)=  2.37602E-13
 Non-SCF case, kpt  131 (  0.00000  0.13043  0.13043), residuals and eigenvalues=
  6.15E-17  5.68E-18  1.96E-17  5.01E-17  8.56E-17  2.20E-17  6.51E-15  7.53E-13
 -3.6821E-01 -4.0823E-02  7.3592E-03  7.3592E-03  1.0376E-01  1.2353E-01
  1.7841E-01  1.7841E-01
  prteigrs : nnsclo,ikpt=  100  131 max resid (incl. the buffer)=  7.52667E-13
 Non-SCF case, kpt  132 (  0.00000  0.13478  0.13478), residuals and eigenvalues=
  5.37E-17  6.77E-17  1.96E-17  1.54E-17  2.00E-17  1.15E-17  1.26E-14  1.19E-14
 -3.6770E-01 -4.3299E-02  6.1390E-03  6.1390E-03  1.0495E-01  1.2317E-01
  1.8034E-01  1.8034E-01
  prteigrs : nnsclo,ikpt=  100  132 max resid (incl. the buffer)=  1.26468E-14
 Non-SCF case, kpt  133 (  0.00000  0.13913  0.13913), residuals and eigenvalues=
  6.40E-17  8.45E-17  2.27E-17  1.63E-17  2.95E-17  6.94E-17  4.93E-13  3.61E-12
 -3.6718E-01 -4.5770E-02  4.9135E-03  4.9135E-03  1.0588E-01  1.2301E-01
  1.8229E-01  1.8229E-01
  prteigrs : nnsclo,ikpt=  100  133 max resid (incl. the buffer)=  3.60667E-12
 Non-SCF case, kpt  134 (  0.00000  0.14348  0.14348), residuals and eigenvalues=
  5.85E-17  8.83E-17  1.98E-17  2.06E-17  1.86E-17  5.21E-17  1.12E-12  7.00E-12
 -3.6664E-01 -4.8237E-02  3.6839E-03  3.6839E-03  1.0653E-01  1.2308E-01
  1.8428E-01  1.8428E-01
  prteigrs : nnsclo,ikpt=  100  134 max resid (incl. the buffer)=  6.99931E-12
 Non-SCF case, kpt  135 (  0.00000  0.14783  0.14783), residuals and eigenvalues=
  5.40E-17  9.17E-17  1.70E-17  2.70E-17  1.04E-17  2.93E-17  2.55E-12  1.28E-11
 -3.6608E-01 -5.0698E-02  2.4515E-03  2.4515E-03  1.0688E-01  1.2338E-01
  1.8628E-01  1.8628E-01
  prteigrs : nnsclo,ikpt=  100  135 max resid (incl. the buffer)=  1.28149E-11
 Non-SCF case, kpt  136 (  0.00000  0.15217  0.15217), residuals and eigenvalues=
  5.03E-17  9.44E-17  1.44E-17  3.37E-17  6.11E-17  1.59E-17  1.84E-13  5.07E-13
 -3.6551E-01 -5.3154E-02  1.2175E-03  1.2175E-03  1.0695E-01  1.2391E-01
  1.8831E-01  1.8831E-01
  prteigrs : nnsclo,ikpt=  100  136 max resid (incl. the buffer)=  5.07086E-13
 Non-SCF case, kpt  137 (  0.00000  0.15652  0.15652), residuals and eigenvalues=
  4.73E-17  9.64E-17  1.23E-17  4.02E-17  5.31E-17  2.54E-17  2.98E-13  1.18E-12
 -3.6492E-01 -5.5605E-02 -1.6826E-05 -1.6826E-05  1.0678E-01  1.2461E-01
  1.9036E-01  1.9036E-01
  prteigrs : nnsclo,ikpt=  100  137 max resid (incl. the buffer)=  1.18066E-12
 Non-SCF case, kpt  138 (  0.00000  0.16087  0.16087), residuals and eigenvalues=
  4.42E-17  9.80E-17  1.07E-17  4.64E-17  2.44E-17  5.23E-17  5.40E-13  2.57E-12
 -3.6432E-01 -5.8050E-02 -1.2506E-03 -1.2506E-03  1.0640E-01  1.2544E-01
  1.9244E-01  1.9244E-01
  prteigrs : nnsclo,ikpt=  100  138 max resid (incl. the buffer)=  2.56803E-12
 Non-SCF case, kpt  139 (  0.00000  0.16522  0.16522), residuals and eigenvalues=
  4.07E-17  9.93E-17  9.50E-18  5.26E-17  1.05E-17  9.55E-17  9.82E-13  5.14E-12
 -3.6370E-01 -6.0489E-02 -2.4826E-03 -2.4826E-03  1.0588E-01  1.2635E-01
  1.9453E-01  1.9453E-01
  prteigrs : nnsclo,ikpt=  100  139 max resid (incl. the buffer)=  5.14020E-12
 Non-SCF case, kpt  140 (  0.00000  0.16957  0.16957), residuals and eigenvalues=
  3.68E-17  1.18E-17  9.01E-18  5.47E-17  4.86E-17  2.66E-17  1.71E-12  9.42E-12
 -3.6307E-01 -6.2922E-02 -3.7121E-03 -3.7121E-03  1.0524E-01  1.2729E-01
  1.9664E-01  1.9664E-01
  prteigrs : nnsclo,ikpt=  100  140 max resid (incl. the buffer)=  9.41559E-12
 Non-SCF case, kpt  141 (  0.00000  0.17391  0.17391), residuals and eigenvalues=
  3.29E-17  1.22E-17  9.35E-17  6.12E-17  2.95E-17  3.29E-17  2.79E-12  1.62E-11
 -3.6242E-01 -6.5349E-02 -4.9381E-03 -4.9381E-03  1.0452E-01  1.2823E-01
  1.9877E-01  1.9877E-01
  prteigrs : nnsclo,ikpt=  100  141 max resid (incl. the buffer)=  1.62287E-11
 Non-SCF case, kpt  142 (  0.00000  0.17826  0.17826), residuals and eigenvalues=
  2.94E-17  1.26E-17  8.52E-17  6.79E-17  5.45E-17  4.03E-17  4.32E-12  2.68E-11
 -3.6175E-01 -6.7770E-02 -6.1597E-03 -6.1597E-03  1.0373E-01  1.2914E-01
  2.0092E-01  2.0092E-01
  prteigrs : nnsclo,ikpt=  100  142 max resid (incl. the buffer)=  2.68037E-11
 Non-SCF case, kpt  143 (  0.00000  0.18261  0.18261), residuals and eigenvalues=
  2.64E-17  1.30E-17  7.77E-17  7.47E-17  1.25E-17  5.12E-17  6.35E-12  4.28E-11
 -3.6108E-01 -7.0185E-02 -7.3762E-03 -7.3762E-03  1.0291E-01  1.3000E-01
  2.0308E-01  2.0308E-01
  prteigrs : nnsclo,ikpt=  100  143 max resid (incl. the buffer)=  4.28416E-11
 Non-SCF case, kpt  144 (  0.00000  0.18696  0.18696), residuals and eigenvalues=
  2.38E-17  1.34E-17  7.09E-17  8.17E-17  1.84E-17  6.71E-17  8.81E-12  6.68E-11
 -3.6038E-01 -7.2592E-02 -8.5867E-03 -8.5867E-03  1.0205E-01  1.3080E-01
  2.0526E-01  2.0526E-01
  prteigrs : nnsclo,ikpt=  100  144 max resid (incl. the buffer)=  6.68129E-11
 Non-SCF case, kpt  145 (  0.00000  0.19130  0.19130), residuals and eigenvalues=
  2.14E-17  1.36E-17  6.35E-17  8.99E-17  4.06E-17  8.36E-17  1.15E-11  1.03E-10
 -3.5967E-01 -7.4994E-02 -9.7907E-03 -9.7907E-03  1.0118E-01  1.3152E-01
  2.0746E-01  2.0746E-01
  prteigrs : nnsclo,ikpt=  100  145 max resid (incl. the buffer)=  1.02641E-10
 Non-SCF case, kpt  146 (  0.00000  0.19565  0.19565), residuals and eigenvalues=
  1.93E-17  1.39E-17  5.81E-17  9.62E-17  6.26E-17  8.27E-17  1.43E-11  1.56E-10
 -3.5895E-01 -7.7388E-02 -1.0987E-02 -1.0987E-02  1.0029E-01  1.3215E-01
  2.0966E-01  2.0966E-01
  prteigrs : nnsclo,ikpt=  100  146 max resid (incl. the buffer)=  1.56190E-10
 Non-SCF case, kpt  147 (  0.00000  0.20000  0.20000), residuals and eigenvalues=
  1.77E-17  1.41E-17  5.34E-17  9.60E-18  7.60E-17  6.54E-17  1.66E-11  2.37E-10
 -3.5821E-01 -7.9775E-02 -1.2176E-02 -1.2176E-02  9.9402E-02  1.3269E-01
  2.1188E-01  2.1188E-01
  prteigrs : nnsclo,ikpt=  100  147 max resid (incl. the buffer)=  2.36691E-10
 Non-SCF case, kpt  148 (  0.00000  0.20435  0.20435), residuals and eigenvalues=
  1.69E-17  1.44E-17  4.92E-17  1.02E-17  1.30E-17  7.51E-17  1.82E-11  3.58E-10
 -3.5746E-01 -8.2154E-02 -1.3356E-02 -1.3356E-02  9.8507E-02  1.3314E-01
  2.1411E-01  2.1411E-01
  prteigrs : nnsclo,ikpt=  100  148 max resid (incl. the buffer)=  3.57563E-10
 Non-SCF case, kpt  149 (  0.00000  0.20870  0.20870), residuals and eigenvalues=
  1.67E-17  1.46E-17  4.56E-17  1.09E-17  1.77E-17  2.04E-17  1.88E-11  5.38E-10
 -3.5670E-01 -8.4526E-02 -1.4527E-02 -1.4527E-02  9.7613E-02  1.3348E-01
  2.1636E-01  2.1636E-01
  prteigrs : nnsclo,ikpt=  100  149 max resid (incl. the buffer)=  5.38119E-10
 Non-SCF case, kpt  150 (  0.00000  0.21304  0.21304), residuals and eigenvalues=
  1.30E-17  2.62E-17  4.30E-17  1.68E-17  2.26E-17  5.19E-17  6.47E-14  1.53E-09
 -3.5592E-01 -8.6890E-02 -1.5689E-02 -1.5689E-02  9.6722E-02  1.3371E-01
  2.1861E-01  2.1861E-01
  prteigrs : nnsclo,ikpt=  100  150 max resid (incl. the buffer)=  1.52681E-09
 Non-SCF case, kpt  151 (  0.00000  0.21739  0.21739), residuals and eigenvalues=
  1.29E-17  2.12E-17  4.57E-17  1.73E-17  1.91E-17  2.66E-17  1.43E-12  8.10E-09
 -3.5512E-01 -8.9247E-02 -1.6840E-02 -1.6840E-02  9.5839E-02  1.3384E-01
  2.2088E-01  2.2088E-01
  prteigrs : nnsclo,ikpt=  100  151 max resid (incl. the buffer)=  8.10329E-09
 Non-SCF case, kpt  152 (  0.00000  0.22174  0.22174), residuals and eigenvalues=
  1.35E-17  1.77E-17  4.26E-17  1.69E-17  1.81E-17  1.75E-17  1.52E-12  1.11E-09
 -3.5431E-01 -9.1595E-02 -1.7980E-02 -1.7980E-02  9.4963E-02  1.3387E-01
  2.2315E-01  2.2315E-01
  prteigrs : nnsclo,ikpt=  100  152 max resid (incl. the buffer)=  1.11306E-09
 Non-SCF case, kpt  153 (  0.00000  0.22609  0.22609), residuals and eigenvalues=
  1.43E-17  1.50E-17  3.88E-17  1.60E-17  9.04E-17  1.73E-17  4.39E-12  4.93E-09
 -3.5349E-01 -9.3934E-02 -1.9110E-02 -1.9110E-02  9.4098E-02  1.3380E-01
  2.2544E-01  2.2544E-01
  prteigrs : nnsclo,ikpt=  100  153 max resid (incl. the buffer)=  4.93379E-09
 Non-SCF case, kpt  154 (  0.00000  0.23043  0.23043), residuals and eigenvalues=
  1.46E-17  1.28E-17  3.48E-17  1.48E-17  7.36E-17  2.04E-17  1.23E-11  2.52E-08
 -3.5266E-01 -9.6264E-02 -2.0228E-02 -2.0228E-02  9.3243E-02  1.3362E-01
  2.2773E-01  2.2773E-01
  prteigrs : nnsclo,ikpt=  100  154 max resid (incl. the buffer)=  2.51937E-08
 Non-SCF case, kpt  155 (  0.00000  0.23478  0.23478), residuals and eigenvalues=
  1.43E-17  1.10E-17  3.05E-17  9.98E-17  5.84E-17  9.53E-17  6.52E-12  4.99E-09
 -3.5181E-01 -9.8586E-02 -2.1334E-02 -2.1334E-02  9.2401E-02  1.3335E-01
  2.3003E-01  2.3003E-01
  prteigrs : nnsclo,ikpt=  100  155 max resid (incl. the buffer)=  4.99252E-09
 Non-SCF case, kpt  156 (  0.00000  0.23913  0.23913), residuals and eigenvalues=
  1.36E-17  9.47E-18  2.65E-17  8.84E-17  4.80E-17  4.03E-17  1.26E-12  3.45E-09
 -3.5096E-01 -1.0090E-01 -2.2427E-02 -2.2427E-02  9.1573E-02  1.3299E-01
  2.3234E-01  2.3234E-01
  prteigrs : nnsclo,ikpt=  100  156 max resid (incl. the buffer)=  3.45434E-09
 Non-SCF case, kpt  157 (  0.00000  0.24348  0.24348), residuals and eigenvalues=
  1.79E-17  2.78E-17  8.44E-17  1.50E-17  2.05E-17  2.10E-17  1.48E-12  3.68E-11
 -3.5008E-01 -1.0320E-01 -2.3508E-02 -2.3508E-02  9.0758E-02  1.3254E-01
  2.3466E-01  2.3466E-01
  prteigrs : nnsclo,ikpt=  100  157 max resid (incl. the buffer)=  3.68185E-11
 Non-SCF case, kpt  158 (  0.00000  0.24783  0.24783), residuals and eigenvalues=
  2.21E-17  5.79E-17  7.77E-17  5.27E-17  8.55E-17  7.18E-17  4.82E-10  2.62E-07
 -3.4920E-01 -1.0549E-01 -2.4575E-02 -2.4575E-02  8.9959E-02  1.3201E-01
  2.3699E-01  2.3699E-01
  prteigrs : nnsclo,ikpt=  100  158 max resid (incl. the buffer)=  2.61938E-07
 Non-SCF case, kpt  159 (  0.00000  0.25217  0.25217), residuals and eigenvalues=
  2.88E-17  2.88E-17  2.32E-17  5.01E-17  6.95E-17  5.39E-17  4.97E-12  2.05E-09
 -3.4830E-01 -1.0778E-01 -2.5629E-02 -2.5629E-02  8.9176E-02  1.3141E-01
  2.3932E-01  2.3932E-01
  prteigrs : nnsclo,ikpt=  100  159 max resid (incl. the buffer)=  2.04863E-09
 Non-SCF case, kpt  160 (  0.00000  0.25652  0.25652), residuals and eigenvalues=
  7.10E-17  8.54E-18  9.56E-18  6.01E-17  4.24E-17  3.86E-17  1.21E-12  1.02E-06
 -3.4740E-01 -1.1005E-01 -2.6670E-02 -2.6670E-02  8.8408E-02  1.3074E-01
  2.4165E-01  2.4166E-01
  prteigrs : nnsclo,ikpt=  100  160 max resid (incl. the buffer)=  1.01824E-06
 Non-SCF case, kpt  161 (  0.00000  0.26087  0.26087), residuals and eigenvalues=
  7.11E-17  8.50E-18  9.79E-17  4.91E-17  4.05E-17  2.51E-17  9.64E-13  1.86E-06
 -3.4648E-01 -1.1231E-01 -2.7696E-02 -2.7696E-02  8.7658E-02  1.3000E-01
  2.4400E-01  2.4401E-01
  prteigrs : nnsclo,ikpt=  100  161 max resid (incl. the buffer)=  1.86416E-06
 Non-SCF case, kpt  162 (  0.00000  0.26522  0.26522), residuals and eigenvalues=
  7.13E-17  7.46E-18  8.85E-17  3.64E-17  3.66E-17  2.43E-17  8.82E-13  2.50E-06
 -3.4555E-01 -1.1456E-01 -2.8707E-02 -2.8707E-02  8.6925E-02  1.2920E-01
  2.4634E-01  2.4636E-01
  prteigrs : nnsclo,ikpt=  100  162 max resid (incl. the buffer)=  2.49790E-06
 Non-SCF case, kpt  163 (  0.00000  0.26957  0.26957), residuals and eigenvalues=
  1.27E-17  5.37E-17  1.27E-17  8.52E-17  2.75E-17  9.35E-17  6.77E-12  2.20E-07
 -3.4461E-01 -1.1680E-01 -2.9705E-02 -2.9705E-02  8.6209E-02  1.2834E-01
  2.4869E-01  2.4870E-01
  prteigrs : nnsclo,ikpt=  100  163 max resid (incl. the buffer)=  2.20434E-07
 Non-SCF case, kpt  164 (  0.00000  0.27391  0.27391), residuals and eigenvalues=
  1.19E-17  5.37E-17  1.37E-17  8.81E-17  2.35E-17  8.16E-17  7.40E-12  3.35E-07
 -3.4365E-01 -1.1902E-01 -3.0687E-02 -3.0687E-02  8.5512E-02  1.2744E-01
  2.5105E-01  2.5105E-01
  prteigrs : nnsclo,ikpt=  100  164 max resid (incl. the buffer)=  3.34795E-07
 Non-SCF case, kpt  165 (  0.00000  0.27826  0.27826), residuals and eigenvalues=
  9.60E-17  5.30E-17  1.40E-17  9.21E-17  1.99E-17  6.77E-17  7.83E-12  4.68E-07
 -3.4269E-01 -1.2123E-01 -3.1653E-02 -3.1653E-02  8.4833E-02  1.2650E-01
  2.5341E-01  2.5342E-01
  prteigrs : nnsclo,ikpt=  100  165 max resid (incl. the buffer)=  4.68144E-07
 Non-SCF case, kpt  166 (  0.00000  0.28261  0.28261), residuals and eigenvalues=
  9.27E-17  5.15E-17  1.49E-17  9.96E-17  1.68E-17  5.37E-17  8.09E-12  6.10E-07
 -3.4172E-01 -1.2344E-01 -3.2605E-02 -3.2605E-02  8.4174E-02  1.2551E-01
  2.5578E-01  2.5578E-01
  prteigrs : nnsclo,ikpt=  100  166 max resid (incl. the buffer)=  6.10174E-07
 Non-SCF case, kpt  167 (  0.00000  0.28696  0.28696), residuals and eigenvalues=
  9.08E-17  4.92E-17  1.42E-17  2.84E-17  9.50E-17  8.94E-17  8.24E-12  7.49E-07
 -3.4074E-01 -1.2562E-01 -3.3540E-02 -3.3540E-02  8.3533E-02  1.2450E-01
  2.5814E-01  2.5815E-01
  prteigrs : nnsclo,ikpt=  100  167 max resid (incl. the buffer)=  7.49428E-07
 Non-SCF case, kpt  168 (  0.00000  0.29130  0.29130), residuals and eigenvalues=
  9.00E-17  4.62E-17  1.33E-17  3.08E-17  8.29E-17  6.68E-17  8.32E-12  8.75E-07
 -3.3975E-01 -1.2779E-01 -3.4460E-02 -3.4460E-02  8.2912E-02  1.2345E-01
  2.6052E-01  2.6052E-01
  prteigrs : nnsclo,ikpt=  100  168 max resid (incl. the buffer)=  8.75371E-07
 Non-SCF case, kpt  169 (  0.00000  0.29565  0.29565), residuals and eigenvalues=
  8.94E-17  4.31E-17  7.64E-17  1.52E-17  7.19E-17  4.85E-17  8.36E-12  9.80E-07
 -3.3875E-01 -1.2995E-01 -3.5363E-02 -3.5363E-02  8.2310E-02  1.2238E-01
  2.6289E-01  2.6289E-01
  prteigrs : nnsclo,ikpt=  100  169 max resid (incl. the buffer)=  9.79861E-07
 Non-SCF case, kpt  170 (  0.00000  0.30000  0.30000), residuals and eigenvalues=
  5.21E-17  2.93E-17  3.44E-17  3.91E-17  7.58E-17  4.76E-17  1.60E-11  1.12E-05
 -3.3775E-01 -1.3210E-01 -3.6250E-02 -3.6250E-02  8.1729E-02  1.2128E-01
  2.6526E-01  2.6532E-01
  prteigrs : nnsclo,ikpt=  100  170 max resid (incl. the buffer)=  1.11922E-05
 Non-SCF case, kpt  171 (  0.00000  0.30435  0.30435), residuals and eigenvalues=
  1.83E-17  1.72E-17  1.80E-17  1.42E-17  8.47E-17  7.73E-17  7.75E-13  4.75E-05
 -3.3674E-01 -1.3422E-01 -3.7121E-02 -3.7121E-02  8.1168E-02  1.2017E-01
  2.6764E-01  2.6775E-01
  prteigrs : nnsclo,ikpt=  100  171 max resid (incl. the buffer)=  4.74718E-05
 Non-SCF case, kpt  172 (  0.00000  0.30870  0.30870), residuals and eigenvalues=
  1.80E-17  2.11E-17  1.77E-17  1.32E-17  7.50E-17  5.00E-17  1.02E-12  4.74E-05
 -3.3572E-01 -1.3634E-01 -3.7974E-02 -3.7974E-02  8.0627E-02  1.1905E-01
  2.7002E-01  2.7014E-01
  prteigrs : nnsclo,ikpt=  100  172 max resid (incl. the buffer)=  4.74141E-05
 Non-SCF case, kpt  173 (  0.00000  0.31304  0.31304), residuals and eigenvalues=
  1.76E-17  2.36E-17  1.73E-17  1.22E-17  6.60E-17  3.28E-17  1.38E-12  4.73E-05
 -3.3469E-01 -1.3843E-01 -3.8811E-02 -3.8811E-02  8.0106E-02  1.1791E-01
  2.7240E-01  2.7252E-01
  prteigrs : nnsclo,ikpt=  100  173 max resid (incl. the buffer)=  4.73013E-05
 Non-SCF case, kpt  174 (  0.00000  0.31739  0.31739), residuals and eigenvalues=
  1.73E-17  2.40E-17  1.68E-17  1.11E-17  5.79E-17  2.18E-17  1.90E-12  4.74E-05
 -3.3366E-01 -1.4051E-01 -3.9631E-02 -3.9631E-02  7.9607E-02  1.1676E-01
  2.7478E-01  2.7490E-01
  prteigrs : nnsclo,ikpt=  100  174 max resid (incl. the buffer)=  4.74168E-05
 Non-SCF case, kpt  175 (  0.00000  0.32174  0.32174), residuals and eigenvalues=
  2.34E-17  9.57E-17  1.99E-17  3.23E-17  2.19E-17  4.91E-17  5.14E-11  4.28E-06
 -3.3262E-01 -1.4257E-01 -4.0433E-02 -4.0433E-02  7.9128E-02  1.1561E-01
  2.7715E-01  2.7716E-01
  prteigrs : nnsclo,ikpt=  100  175 max resid (incl. the buffer)=  4.28225E-06
[...]
 kpt# 351, nband=  8, wtk=  1.00000, kpt=  0.8282  0.9141  0.9141 (reduced coord)
 -10.04770   -1.12784    0.18369    0.72593    2.36508    4.03338    4.11788    4.83506
 kpt# 352, nband=  8, wtk=  1.00000, kpt=  0.8344  0.9172  0.9172 (reduced coord)
 -10.06004   -1.05438    0.22474    0.73487    2.33487    4.02136    4.10398    4.78149
 kpt# 353, nband=  8, wtk=  1.00000, kpt=  0.8405  0.9202  0.9202 (reduced coord)
 -10.07196   -0.98060    0.26499    0.74343    2.30359    4.01013    4.09058    4.72805
 kpt# 354, nband=  8, wtk=  1.00000, kpt=  0.8466  0.9233  0.9233 (reduced coord)
 -10.08345   -0.90654    0.30437    0.75162    2.27115    3.99967    4.07770    4.67497
 kpt# 355, nband=  8, wtk=  1.00000, kpt=  0.8528  0.9264  0.9264 (reduced coord)
 -10.09451   -0.83221    0.34284    0.75943    2.23749    3.98998    4.06533    4.62249
 kpt# 356, nband=  8, wtk=  1.00000, kpt=  0.8589  0.9294  0.9294 (reduced coord)
 -10.10513   -0.75764    0.38032    0.76688    2.20253    3.98105    4.05347    4.57080
 kpt# 357, nband=  8, wtk=  1.00000, kpt=  0.8650  0.9325  0.9325 (reduced coord)
 -10.11532   -0.68285    0.41677    0.77396    2.16622    3.97287    4.04211    4.52012
 kpt# 358, nband=  8, wtk=  1.00000, kpt=  0.8712  0.9356  0.9356 (reduced coord)
 -10.12507   -0.60787    0.45212    0.78069    2.12847    3.96541    4.03127    4.47065
 kpt# 359, nband=  8, wtk=  1.00000, kpt=  0.8773  0.9387  0.9387 (reduced coord)
 -10.13439   -0.53273    0.48631    0.78707    2.08924    3.95866    4.02093    4.42257
 kpt# 360, nband=  8, wtk=  1.00000, kpt=  0.8834  0.9417  0.9417 (reduced coord)
 -10.14325   -0.45746    0.51928    0.79310    2.04847    3.95260    4.01110    4.37605
 kpt# 361, nband=  8, wtk=  1.00000, kpt=  0.8896  0.9448  0.9448 (reduced coord)
 -10.15168   -0.38209    0.55098    0.79878    2.00610    3.94720    4.00178    4.33126
 kpt# 362, nband=  8, wtk=  1.00000, kpt=  0.8957  0.9479  0.9479 (reduced coord)
 -10.15966   -0.30665    0.58135    0.80413    1.96212    3.94244    3.99296    4.28833
 kpt# 363, nband=  8, wtk=  1.00000, kpt=  0.9018  0.9509  0.9509 (reduced coord)
 -10.16719   -0.23120    0.61032    0.80914    1.91647    3.93827    3.98465    4.24740
 kpt# 364, nband=  8, wtk=  1.00000, kpt=  0.9080  0.9540  0.9540 (reduced coord)
 -10.17428   -0.15576    0.63785    0.81383    1.86916    3.93468    3.97685    4.20859
 kpt# 365, nband=  8, wtk=  1.00000, kpt=  0.9141  0.9571  0.9571 (reduced coord)
 -10.18091   -0.08039    0.66387    0.81819    1.82017    3.93161    3.96955    4.17199
 kpt# 366, nband=  8, wtk=  1.00000, kpt=  0.9202  0.9601  0.9601 (reduced coord)
 -10.18709   -0.00514    0.68835    0.82223    1.76952    3.92903    3.96276    4.13770
 kpt# 367, nband=  8, wtk=  1.00000, kpt=  0.9264  0.9632  0.9632 (reduced coord)
 -10.19282    0.06994    0.71122    0.82596    1.71724    3.92689    3.95647    4.10578
 kpt# 368, nband=  8, wtk=  1.00000, kpt=  0.9325  0.9663  0.9663 (reduced coord)
 -10.19809    0.14478    0.73245    0.82937    1.66337    3.92516    3.95068    4.07630
 kpt# 369, nband=  8, wtk=  1.00000, kpt=  0.9387  0.9693  0.9693 (reduced coord)
 -10.20291    0.21930    0.75198    0.83247    1.60797    3.92378    3.94540    4.04931
 kpt# 370, nband=  8, wtk=  1.00000, kpt=  0.9448  0.9724  0.9724 (reduced coord)
 -10.20727    0.29342    0.76979    0.83527    1.55113    3.92271    3.94062    4.02483
 kpt# 371, nband=  8, wtk=  1.00000, kpt=  0.9509  0.9755  0.9755 (reduced coord)
 -10.21118    0.36701    0.78582    0.83776    1.49297    3.92190    3.93635    4.00290
 kpt# 372, nband=  8, wtk=  1.00000, kpt=  0.9571  0.9785  0.9785 (reduced coord)
 -10.21463    0.43992    0.80005    0.83995    1.43363    3.92131    3.93258    3.98354
 kpt# 373, nband=  8, wtk=  1.00000, kpt=  0.9632  0.9816  0.9816 (reduced coord)
 -10.21762    0.51194    0.81244    0.84185    1.37335    3.92090    3.92931    3.96675
 kpt# 374, nband=  8, wtk=  1.00000, kpt=  0.9693  0.9847  0.9847 (reduced coord)
 -10.22015    0.58273    0.82298    0.84345    1.31246    3.92063    3.92655    3.95254
 kpt# 375, nband=  8, wtk=  1.00000, kpt=  0.9755  0.9877  0.9877 (reduced coord)
 -10.22222    0.65172    0.83163    0.84476    1.25156    3.92046    3.92429    3.94092
 kpt# 376, nband=  8, wtk=  1.00000, kpt=  0.9816  0.9908  0.9908 (reduced coord)
 -10.22383    0.71776    0.83837    0.84577    1.19179    3.92035    3.92253    3.93188
 kpt# 377, nband=  8, wtk=  1.00000, kpt=  0.9877  0.9939  0.9939 (reduced coord)
 -10.22498    0.77830    0.84320    0.84650    1.13573    3.92030    3.92127    3.92543
 kpt# 378, nband=  8, wtk=  1.00000, kpt=  0.9939  0.9969  0.9969 (reduced coord)
 -10.22567    0.82663    0.84611    0.84693    1.09009    3.92027    3.92052    3.92156
 kpt# 379, nband=  8, wtk=  1.00000, kpt=  1.0000  1.0000  1.0000 (reduced coord)
 -10.22590    0.84707    0.84707    0.84707    1.07053    3.92027    3.92027    3.92027

== END DATASET(S) ==============================================================
================================================================================
  
 -outvars: echo values of variables after computation  --------
            acell      1.1992657950E+01  1.1992657950E+01  1.1992657950E+01 Bohr
              amu      1.14820000E+02  1.21753000E+02
             ecut      2.50000000E+01 Hartree
           enunit1          0
           enunit2          1
           etotal1    -7.6835188223E+00
            fcart1    -0.0000000000E+00 -0.0000000000E+00 -0.0000000000E+00
                      -0.0000000000E+00 -0.0000000000E+00 -0.0000000000E+00
-          fftalg         312
           getden1          0
           getden2         -1
             iscf1          7
             iscf2         -2
           istwfk2       3    0    0    0    0    0    0    0    0    0
                         0    0    0    0    0    0    0    0    0    0
                         0    0    0    0    0    0    0    0    0    0
                         0    0    0    0    0    0    0    0    0    0
                         0    0    0    0    0    0    0    0    0    0
                       outvar_i_n : Printing only first  50 k-points.
           jdtset        1    2
              kpt1    -1.25000000E-01 -2.50000000E-01  0.00000000E+00
                      -1.25000000E-01  5.00000000E-01  0.00000000E+00
                      -2.50000000E-01 -3.75000000E-01  0.00000000E+00
                      -1.25000000E-01 -3.75000000E-01  1.25000000E-01
                      -1.25000000E-01  2.50000000E-01  0.00000000E+00
                      -2.50000000E-01  3.75000000E-01  0.00000000E+00
                      -3.75000000E-01  5.00000000E-01  0.00000000E+00
                      -2.50000000E-01  5.00000000E-01  1.25000000E-01
                      -1.25000000E-01  0.00000000E+00  0.00000000E+00
                      -3.75000000E-01  0.00000000E+00  0.00000000E+00
              kpt2     5.00000000E-01  0.00000000E+00  0.00000000E+00
                       4.95000000E-01  0.00000000E+00  0.00000000E+00
                       4.90000000E-01  0.00000000E+00  0.00000000E+00
                       4.85000000E-01  0.00000000E+00  0.00000000E+00
                       4.80000000E-01  0.00000000E+00  0.00000000E+00
                       4.75000000E-01  0.00000000E+00  0.00000000E+00
                       4.70000000E-01  0.00000000E+00  0.00000000E+00
                       4.65000000E-01  0.00000000E+00  0.00000000E+00
                       4.60000000E-01  0.00000000E+00  0.00000000E+00
                       4.55000000E-01  0.00000000E+00  0.00000000E+00
                       4.50000000E-01  0.00000000E+00  0.00000000E+00
                       4.45000000E-01  0.00000000E+00  0.00000000E+00
                       4.40000000E-01  0.00000000E+00  0.00000000E+00
                       4.35000000E-01  0.00000000E+00  0.00000000E+00
                       4.30000000E-01  0.00000000E+00  0.00000000E+00
                       4.25000000E-01  0.00000000E+00  0.00000000E+00
                       4.20000000E-01  0.00000000E+00  0.00000000E+00
                       4.15000000E-01  0.00000000E+00  0.00000000E+00
                       4.10000000E-01  0.00000000E+00  0.00000000E+00
                       4.05000000E-01  0.00000000E+00  0.00000000E+00
                       4.00000000E-01  0.00000000E+00  0.00000000E+00
                       3.95000000E-01  0.00000000E+00  0.00000000E+00
                       3.90000000E-01  0.00000000E+00  0.00000000E+00
                       3.85000000E-01  0.00000000E+00  0.00000000E+00
                       3.80000000E-01  0.00000000E+00  0.00000000E+00
                       3.75000000E-01  0.00000000E+00  0.00000000E+00
                       3.70000000E-01  0.00000000E+00  0.00000000E+00
                       3.65000000E-01  0.00000000E+00  0.00000000E+00
                       3.60000000E-01  0.00000000E+00  0.00000000E+00
                       3.55000000E-01  0.00000000E+00  0.00000000E+00
                       3.50000000E-01  0.00000000E+00  0.00000000E+00
                       3.45000000E-01  0.00000000E+00  0.00000000E+00
                       3.40000000E-01  0.00000000E+00  0.00000000E+00
                       3.35000000E-01  0.00000000E+00  0.00000000E+00
                       3.30000000E-01  0.00000000E+00  0.00000000E+00
                       3.25000000E-01  0.00000000E+00  0.00000000E+00
                       3.20000000E-01  0.00000000E+00  0.00000000E+00
                       3.15000000E-01  0.00000000E+00  0.00000000E+00
                       3.10000000E-01  0.00000000E+00  0.00000000E+00
                       3.05000000E-01  0.00000000E+00  0.00000000E+00
                       3.00000000E-01  0.00000000E+00  0.00000000E+00
                       2.95000000E-01  0.00000000E+00  0.00000000E+00
                       2.90000000E-01  0.00000000E+00  0.00000000E+00
                       2.85000000E-01  0.00000000E+00  0.00000000E+00
                       2.80000000E-01  0.00000000E+00  0.00000000E+00
                       2.75000000E-01  0.00000000E+00  0.00000000E+00
                       2.70000000E-01  0.00000000E+00  0.00000000E+00
                       2.65000000E-01  0.00000000E+00  0.00000000E+00
                       2.60000000E-01  0.00000000E+00  0.00000000E+00
                       2.55000000E-01  0.00000000E+00  0.00000000E+00
                       outvar_i_n : Printing only first  50 k-points.
           kptopt1          1
           kptopt2         -3
         kptrlatt        4   -4    4     -4    4    4     -4   -4    4
          kptrlen1     4.79706318E+01
          kptrlen2     3.00000000E+01
P           mkmem1          2
P           mkmem2         48
            natom           2
            nband1          5
            nband2          8
           nbdbuf1          0
           nbdbuf2          2
           ndtset           2
           ndivsm1          0
           ndivsm2        100
            ngfft          40      40      40
             nkpt1         10
             nkpt2        379
            nstep         100
             nsym          24
           ntypat           2
              occ      2.000000  2.000000  2.000000  2.000000  0.000000
            rprim      0.0000000000E+00  5.0000000000E-01  5.0000000000E-01
                       5.0000000000E-01  0.0000000000E+00  5.0000000000E-01
                       5.0000000000E-01  5.0000000000E-01  0.0000000000E+00
           shiftk      5.00000000E-01  5.00000000E-01  5.00000000E-01
          spgroup         216
           strten1     1.4078781443E-07  1.4078781443E-07  1.4078781443E-07
                       0.0000000000E+00  0.0000000000E+00  0.0000000000E+00
           symrel      1  0  0   0  1  0   0  0  1       0 -1  1   0 -1  0   1 -1  0
                      -1  0  0  -1  0  1  -1  1  0       0  1 -1   1  0 -1   0  0 -1
                      -1  0  0  -1  1  0  -1  0  1       0 -1  1   1 -1  0   0 -1  0
                       1  0  0   0  0  1   0  1  0       0  1 -1   0  0 -1   1  0 -1
                      -1  0  1  -1  1  0  -1  0  0       0 -1  0   1 -1  0   0 -1  1
                       1  0 -1   0  0 -1   0  1 -1       0  1  0   0  0  1   1  0  0
                       1  0 -1   0  1 -1   0  0 -1       0 -1  0   0 -1  1   1 -1  0
                      -1  0  1  -1  0  0  -1  1  0       0  1  0   1  0  0   0  0  1
                       0  0 -1   0  1 -1   1  0 -1       1 -1  0   0 -1  1   0 -1  0
                       0  0  1   1  0  0   0  1  0      -1  1  0  -1  0  0  -1  0  1
                       0  0  1   0  1  0   1  0  0       1 -1  0   0 -1  0   0 -1  1
                       0  0 -1   1  0 -1   0  1 -1      -1  1  0  -1  0  1  -1  0  0
           tolvrs1     1.00000000E-12
           tolvrs2     0.00000000E+00
           tolwfr1     0.00000000E+00
           tolwfr2     1.00000000E-16
            typat      1  2
              wtk1       0.09375    0.09375    0.09375    0.18750    0.09375    0.09375
                         0.09375    0.18750    0.03125    0.03125
              wtk2       1.00000    1.00000    1.00000    1.00000    1.00000    1.00000
                         1.00000    1.00000    1.00000    1.00000    1.00000    1.00000
                         1.00000    1.00000    1.00000    1.00000    1.00000    1.00000
                         1.00000    1.00000    1.00000    1.00000    1.00000    1.00000
                         1.00000    1.00000    1.00000    1.00000    1.00000    1.00000
                         1.00000    1.00000    1.00000    1.00000    1.00000    1.00000
                         1.00000    1.00000    1.00000    1.00000    1.00000    1.00000
                         1.00000    1.00000    1.00000    1.00000    1.00000    1.00000
                         1.00000    1.00000
                       outvars : Printing only first  50 k-points.
           xangst      0.0000000000E+00  0.0000000000E+00  0.0000000000E+00
                       1.5865603144E+00  1.5865603144E+00  1.5865603144E+00
            xcart      0.0000000000E+00  0.0000000000E+00  0.0000000000E+00
                       2.9981644875E+00  2.9981644875E+00  2.9981644875E+00
             xred      0.0000000000E+00  0.0000000000E+00  0.0000000000E+00
                       2.5000000000E-01  2.5000000000E-01  2.5000000000E-01
            znucl       49.00000   51.00000

================================================================================


- Timing analysis has been suppressed with timopt=0



================================================================================

 Suggested references for the acknowledgment of ABINIT usage.

 The users of ABINIT have little formal obligations with respect to the ABINIT group
 (those specified in the GNU General Public License, http://www.gnu.org/copyleft/gpl.txt).
 However, it is common practice in the scientific literature,
 to acknowledge the efforts of people that have made the research possible.
 In this spirit, please find below suggested citations of work written by ABINIT developers,
 corresponding to implementations inside of ABINIT that you have used in the present run.
 Note also that it will be of great value to readers of publications presenting these results,
 to read papers enabling them to understand the theoretical formalism and details
 of the ABINIT implementation.
 For information on why they are suggested, see also https://docs.abinit.org/theory/acknowledgments.
-
- [1] The Abinit project: Impact, environment and recent developments.
- Computer Phys. Comm. 248, 107042 (2020).
- X.Gonze, B. Amadon, G. Antonius, F.Arnardi, L.Baguet, J.-M.Beuken,
- J.Bieder, F.Bottin, J.Bouchet, E.Bousquet, N.Brouwer, F.Bruneval,
- G.Brunin, T.Cavignac, J.-B. Charraud, Wei Chen, M.Cote, S.Cottenier,
- J.Denier, G.Geneste, Ph.Ghosez, M.Giantomassi, Y.Gillet, O.Gingras,
- D.R.Hamann, G.Hautier, Xu He, N.Helbig, N.Holzwarth, Y.Jia, F.Jollet,
- W.Lafargue-Dit-Hauret, K.Lejaeghere, M.A.L.Marques, A.Martin, C.Martins,
- H.P.C. Miranda, F.Naccarato, K. Persson, G.Petretto, V.Planes, Y.Pouillon,
- S.Prokhorenko, F.Ricci, G.-M.Rignanese, A.H.Romero, M.M.Schmitt, M.Torrent,
- M.J.van Setten, B.Van Troeye, M.J.Verstraete, G.Zerah and J.W.Zwanzig
- Comment: the fifth generic paper describing the ABINIT project.
- Note that a version of this paper, that is not formatted for Computer Phys. Comm. 
- is available at https://www.abinit.org/sites/default/files/ABINIT20.pdf .
- The licence allows the authors to put it on the Web.
- DOI and bibtex: see https://docs.abinit.org/theory/bibliography/#gonze2020
-
- [2] ABINIT: Overview, and focus on selected capabilities
- J. Chem. Phys. 152, 124102 (2020).
- A. Romero, D.C. Allan, B. Amadon, G. Antonius, T. Applencourt, L.Baguet,
- J.Bieder, F.Bottin, J.Bouchet, E.Bousquet, F.Bruneval,
- G.Brunin, D.Caliste, M.Cote,
- J.Denier, C. Dreyer, Ph.Ghosez, M.Giantomassi, Y.Gillet, O.Gingras,
- D.R.Hamann, G.Hautier, F.Jollet, G. Jomard,
- A.Martin, 
- H.P.C. Miranda, F.Naccarato, G.Petretto, N.A. Pike, V.Planes,
- S.Prokhorenko, T. Rangel, F.Ricci, G.-M.Rignanese, M.Royo, M.Stengel, M.Torrent,
- M.J.van Setten, B.Van Troeye, M.J.Verstraete, J.Wiktor, J.W.Zwanziger, and X.Gonze.
- Comment: a global overview of ABINIT, with focus on selected capabilities .
- Note that a version of this paper, that is not formatted for J. Chem. Phys 
- is available at https://www.abinit.org/sites/default/files/ABINIT20_JPC.pdf .
- The licence allows the authors to put it on the Web.
- DOI and bibtex: see https://docs.abinit.org/theory/bibliography/#romero2020
-
- [3] Recent developments in the ABINIT software package.
- Computer Phys. Comm. 205, 106 (2016).
- X.Gonze, F.Jollet, F.Abreu Araujo, D.Adams, B.Amadon, T.Applencourt,
- C.Audouze, J.-M.Beuken, J.Bieder, A.Bokhanchuk, E.Bousquet, F.Bruneval
- D.Caliste, M.Cote, F.Dahm, F.Da Pieve, M.Delaveau, M.Di Gennaro,
- B.Dorado, C.Espejo, G.Geneste, L.Genovese, A.Gerossier, M.Giantomassi,
- Y.Gillet, D.R.Hamann, L.He, G.Jomard, J.Laflamme Janssen, S.Le Roux,
- A.Levitt, A.Lherbier, F.Liu, I.Lukacevic, A.Martin, C.Martins,
- M.J.T.Oliveira, S.Ponce, Y.Pouillon, T.Rangel, G.-M.Rignanese,
- A.H.Romero, B.Rousseau, O.Rubel, A.A.Shukri, M.Stankovski, M.Torrent,
- M.J.Van Setten, B.Van Troeye, M.J.Verstraete, D.Waroquier, J.Wiktor,
- B.Xu, A.Zhou, J.W.Zwanziger.
- Comment: the fourth generic paper describing the ABINIT project.
- Note that a version of this paper, that is not formatted for Computer Phys. Comm. 
- is available at https://www.abinit.org/sites/default/files/ABINIT16.pdf .
- The licence allows the authors to put it on the Web.
- DOI and bibtex: see https://docs.abinit.org/theory/bibliography/#gonze2016
-
- And optionally:
-
- [4] ABINIT: First-principles approach of materials and nanosystem properties.
- Computer Phys. Comm. 180, 2582-2615 (2009).
- X. Gonze, B. Amadon, P.-M. Anglade, J.-M. Beuken, F. Bottin, P. Boulanger, F. Bruneval,
- D. Caliste, R. Caracas, M. Cote, T. Deutsch, L. Genovese, Ph. Ghosez, M. Giantomassi
- S. Goedecker, D.R. Hamann, P. Hermet, F. Jollet, G. Jomard, S. Leroux, M. Mancini, S. Mazevet,
- M.J.T. Oliveira, G. Onida, Y. Pouillon, T. Rangel, G.-M. Rignanese, D. Sangalli, R. Shaltaf,
- M. Torrent, M.J. Verstraete, G. Zerah, J.W. Zwanziger
- Comment: the third generic paper describing the ABINIT project.
- Note that a version of this paper, that is not formatted for Computer Phys. Comm. 
- is available at https://www.abinit.org/sites/default/files/ABINIT_CPC_v10.pdf .
- The licence allows the authors to put it on the Web.
- DOI and bibtex: see https://docs.abinit.org/theory/bibliography/#gonze2009
-
- Proc.   0 individual time (sec): cpu=         50.2  wall=         90.0

================================================================================

 Calculation completed.
.Delivered   0 WARNINGs and   2 COMMENTs to log file.
+Overall time at end (sec) : cpu=        393.4  wall=        720.2
