  ABINIT 9.2.2
  
ABI_PSPDIR_InSb  found in environment, with value /Users/lassi/Desktop/abinit_InSb/simulations/pseudos
-instrng: 74 lines of input have been read from file BS_3.abi


.Version 9.2.2 of ABINIT 
.(MPI version, prepared for a arm_darwin20.2.0_gnu10.2 computer) 

.Copyright (C) 1998-2020 ABINIT group . 
 ABINIT comes with ABSOLUTELY NO WARRANTY.
 It is free software, and you are welcome to redistribute it
 under certain conditions (GNU General Public License,
 see ~abinit/COPYING or http://www.gnu.org/copyleft/gpl.txt).

 ABINIT is a project of the Universite Catholique de Louvain,
 Corning Inc. and other collaborators, see ~abinit/doc/developers/contributors.txt .
 Please read https://docs.abinit.org/theory/acknowledgments for suggested
 acknowledgments of the ABINIT effort.
 For more information, see https://www.abinit.org .

.Starting date : Mon  8 Mar 2021.
- ( at 15h23 )
  

 ++++++++++++++++++++++++++++++++++++++++++++++++++++++++++++++++++++++++++++++

 === Build Information === 
  Version       : 9.2.2
  Build target  : arm_darwin20.2.0_gnu10.2
  Build date    : 20210119

 === Compiler Suite === 
  C compiler       : llvm12.0
  C++ compiler     : llvm12.0
  Fortran compiler : gnu10.2
  CFLAGS           : -g -O2 -mtune=native -mcpu=native
  CXXFLAGS         : -g -O2 -mtune=native -mcpu=native
  FCFLAGS          : -g -ffree-line-length-none -fallow-argument-mismatch -fallow-argume ...
  FC_LDFLAGS       : 

 === Optimizations === 
  Debug level        : basic
  Optimization level : standard
  Architecture       : _

 === Multicore === 
  Parallel build : yes
  Parallel I/O   : 
  openMP support : yes
  GPU support    : 

 === Connectors / Fallbacks === 
  LINALG flavor  : netlib
  FFT flavor     : fftw3
  HDF5           : yes
  NetCDF         : yes
  NetCDF Fortran : yes
  LibXC          : yes
  Wannier90      : yes

 === Experimental features === 
  Exports             : 
  GW double-precision : 

 ++++++++++++++++++++++++++++++++++++++++++++++++++++++++++++++++++++++++++++++


 ++++++++++++++++++++++++++++++++++++++++++++++++++++++++++++++++++++++++++++++
 Default optimizations:
   -O2 -mtune=native -march=native


 Optimizations for 43_ptgroups:
   -O0


 ++++++++++++++++++++++++++++++++++++++++++++++++++++++++++++++++++++++++++++++


 ++++++++++++++++++++++++++++++++++++++++++++++++++++++++++++++++++++++++++++++
 CPP options activated during the build:

                   CC_LLVM                  CXX_LLVM                    FC_GNU
 
 HAVE_FC_ALLOCATABLE_DT...             HAVE_FC_ASYNC         HAVE_FC_BACKTRACE
 
  HAVE_FC_COMMAND_ARGUMENT      HAVE_FC_COMMAND_LINE        HAVE_FC_CONTIGUOUS
 
           HAVE_FC_CPUTIME              HAVE_FC_EXIT             HAVE_FC_FLUSH
 
             HAVE_FC_GAMMA            HAVE_FC_GETENV   HAVE_FC_IEEE_ARITHMETIC
 
   HAVE_FC_IEEE_EXCEPTIONS          HAVE_FC_INT_QUAD             HAVE_FC_IOMSG
 
     HAVE_FC_ISO_C_BINDING  HAVE_FC_ISO_FORTRAN_2008        HAVE_FC_LONG_LINES
 
        HAVE_FC_MOVE_ALLOC  HAVE_FC_ON_THE_FLY_SHAPE           HAVE_FC_PRIVATE
 
         HAVE_FC_PROTECTED           HAVE_FC_SHIFTLR         HAVE_FC_STREAM_IO
 
            HAVE_FC_SYSTEM                HAVE_FFTW3            HAVE_FFTW3_MPI
 
          HAVE_FORTRAN2003                 HAVE_HDF5             HAVE_HDF5_MPI
 
        HAVE_LIBPAW_ABINIT      HAVE_LIBTETRA_ABINIT                HAVE_LIBXC
 
         HAVE_LINALG_AXPBY     HAVE_LINALG_SCALAPACK     HAVE_LINALG_ZDOTC_B*G
 
     HAVE_LINALG_ZDOTU_B*G                  HAVE_MPI                 HAVE_MPI2
 
         HAVE_MPI2_INPLACE       HAVE_MPI_IALLGATHER       HAVE_MPI_IALLREDUCE
 
        HAVE_MPI_IALLTOALL       HAVE_MPI_IALLTOALLV           HAVE_MPI_IBCAST
 
         HAVE_MPI_IGATHERV        HAVE_MPI_INTEGER16               HAVE_MPI_IO
 
 HAVE_MPI_TYPE_CREATE_S...               HAVE_NETCDF       HAVE_NETCDF_FORTRAN
 
   HAVE_NETCDF_FORTRAN_MPI           HAVE_NETCDF_MPI         HAVE_OMP_COLLAPSE
 
               HAVE_OPENMP         HAVE_TIMER_ABINIT            HAVE_WANNIER90
 
                  HAVE_XML                                                      
 ++++++++++++++++++++++++++++++++++++++++++++++++++++++++++++++++++++++++++++++

- input  file    -> BS_3.abi
- output file    -> BS_3.abo
- root for input  files -> BS_3i
- root for output files -> BS_3o


--- !WARNING
src_file: m_nctk.F90
src_line: 564
message: |
    Netcdf lib does not support MPI-IO and: NetCDF: Parallel operation on file opened for non-parallel access
...

  Asked to delete not existent file: __TMP_FILE__

--- !WARNING
src_file: m_nctk.F90
src_line: 584
message: |
    The netcdf library does not support parallel IO, see message above
    Abinit won't be able to produce files in parallel e.g. when paral_kgb==1 is used.
    Action: install a netcdf4+HDF5 library with MPI-IO support.
...

ABI_PSPDIR_InSb  found in environment, with value /Users/lassi/Desktop/abinit_InSb/simulations/pseudos
-instrng: 74 lines of input have been read from file BS_3.abi

 For atom type 1, psp file is /Users/lassi/Desktop/abinit_InSb/simulations/pseudos/49in.3.hgh
 For atom type 2, psp file is /Users/lassi/Desktop/abinit_InSb/simulations/pseudos/51sb.5.hgh
  read the values zionpsp=  3.0 , pspcod=   3 , lmax=   2
  read the values zionpsp=  5.0 , pspcod=   3 , lmax=   2

 inpspheads: deduce mpsang = 3, n1xccc = 0.

======================================================= 
 invars1m : enter jdtset= 1

 symlatt: the Bravais lattice is cF (face-centered cubic)
  xred   is defined in input file
 ingeo: takes atomic coordinates from input array xred

--- !WARNING
src_file: m_ingeo.F90
src_line: 887
message: |
    The tolerance on symmetries =   1.000E-05 is bigger than 1.0e-8.
    In order to avoid spurious effects, the atomic coordinates have been
    symmetrized before storing them in the dataset internal variable.
    So, do not be surprised by the fact that your input variables (xcart, xred, ...)
    do not correspond to the ones echoed by ABINIT, the latter being used to do the calculations.
    In order to avoid this symmetrization (e.g. for specific debugging/development), decrease tolsym to 1.0e-8 or lower.
...


 symlatt: the Bravais lattice is cF (face-centered cubic)

 symlatt: the Bravais lattice is cF (face-centered cubic)
 symspgr: spgroup= 216  F-4 3 m   (=Td^2)
 symspgr: optical characteristics = isotropic

======================================================= 
 invars1m : enter jdtset= 2

 symlatt: the Bravais lattice is cF (face-centered cubic)
  xred   is defined in input file
 ingeo: takes atomic coordinates from input array xred

--- !WARNING
src_file: m_ingeo.F90
src_line: 887
message: |
    The tolerance on symmetries =   1.000E-05 is bigger than 1.0e-8.
    In order to avoid spurious effects, the atomic coordinates have been
    symmetrized before storing them in the dataset internal variable.
    So, do not be surprised by the fact that your input variables (xcart, xred, ...)
    do not correspond to the ones echoed by ABINIT, the latter being used to do the calculations.
    In order to avoid this symmetrization (e.g. for specific debugging/development), decrease tolsym to 1.0e-8 or lower.
...


 symlatt: the Bravais lattice is cF (face-centered cubic)

 symlatt: the Bravais lattice is cF (face-centered cubic)
 symspgr: spgroup= 216  F-4 3 m   (=Td^2)
 symspgr: optical characteristics = isotropic
 Real(R)+Recip(G) space primitive vectors, cartesian coordinates (Bohr,Bohr^-1):
 R(1)=  0.0000000  5.9968633  5.9968633  G(1)= -0.0833769  0.0833769  0.0833769
 R(2)=  5.9968633  0.0000000  5.9968633  G(2)=  0.0833769 -0.0833769  0.0833769
 R(3)=  5.9968633  5.9968633  0.0000000  G(3)=  0.0833769  0.0833769 -0.0833769
 Unit cell volume ucvol=  4.3132283E+02 bohr^3
 Unit cell volume ucvol=  4.3132283E+02 bohr^3
 Angles (23,13,12)=  6.00000000E+01  6.00000000E+01  6.00000000E+01 degrees
 Angles (23,13,12)=  6.00000000E+01  6.00000000E+01  6.00000000E+01 degrees
   7.2206531773366486E-002   8.3376921113204813E-002  0.11791277262720590     

 mknormpath : total number of points on the path:      379

 Number of divisions for each segment of the normalized path:
 0.50000 0.00000 0.00000 ==>  0.00000 0.00000 0.00000 ( ndiv:   100 )
 0.00000 0.00000 0.00000 ==>  0.00000 0.50000 0.50000 ( ndiv:   115 )
 0.00000 0.50000 0.50000 ==>  1.00000 1.00000 1.00000 ( ndiv:   163 )


 invars2: take the default value of fband=  1.25000000E-01
 Real(R)+Recip(G) space primitive vectors, cartesian coordinates (Bohr,Bohr^-1):
 R(1)=  0.0000000  5.9968633  5.9968633  G(1)= -0.0833769  0.0833769  0.0833769
 R(2)=  5.9968633  0.0000000  5.9968633  G(2)=  0.0833769 -0.0833769  0.0833769
 R(3)=  5.9968633  5.9968633  0.0000000  G(3)=  0.0833769  0.0833769 -0.0833769
 Unit cell volume ucvol=  4.3132283E+02 bohr^3
 Unit cell volume ucvol=  4.3132283E+02 bohr^3
 Angles (23,13,12)=  6.00000000E+01  6.00000000E+01  6.00000000E+01 degrees
 Angles (23,13,12)=  6.00000000E+01  6.00000000E+01  6.00000000E+01 degrees
   7.2206531773366486E-002   8.3376921113204813E-002  0.11791277262720590     

 mknormpath : total number of points on the path:      379

 Number of divisions for each segment of the normalized path:
 0.50000 0.00000 0.00000 ==>  0.00000 0.00000 0.00000 ( ndiv:   100 )
 0.00000 0.00000 0.00000 ==>  0.00000 0.50000 0.50000 ( ndiv:   115 )
 0.00000 0.50000 0.50000 ==>  1.00000 1.00000 1.00000 ( ndiv:   163 )



--- !WARNING
src_file: m_mpinfo.F90
src_line: 2281
message: |
    nkpt*nsppol (60) is not a multiple of nproc_kpt (8)
    The k-point parallelisation is inefficient. (Ignore this warning if this is not a GS run)
...

 For input ecut=  2.500000E+01 best grid ngfft=      40      40      40
       max ecut=  2.744425E+01

 ==== FFT mesh ====
  FFT mesh divisions ........................    40   40   40
  Augmented FFT divisions ...................    41   41   40
  FFT algorithm .............................   312
  FFT cache size ............................    16
 getmpw: optimal value of mpw= 2637

--- !WARNING
src_file: m_mpinfo.F90
src_line: 2281
message: |
    nkpt*nsppol (379) is not a multiple of nproc_kpt (8)
    The k-point parallelisation is inefficient. (Ignore this warning if this is not a GS run)
...

 For input ecut=  2.500000E+01 best grid ngfft=      40      40      40
       max ecut=  2.744425E+01

 ==== FFT mesh ====
  FFT mesh divisions ........................    40   40   40
  Augmented FFT divisions ...................    41   41   40
  FFT algorithm .............................   312
  FFT cache size ............................    16
 getmpw: optimal value of mpw= 2645

 DATASET    1 : space group F-4 3 m (#216); Bravais cF (face-center cubic)

 getdim_nloc : deduce lmnmax  =  14, lnmax  =   6,
                      lmnmaxso=  25, lnmaxso=   9.
memory: analysis of memory needs
================================================================================
 Values of the parameters that define the memory need for DATASET  1.
     intxc =       0    ionmov =       0      iscf =       7    lmnmax =       6
     lnmax =       6     mgfft =      40  mpssoang =       3    mqgrid =    3001
     natom =       2  nloc_mem =       1    nspden =       1   nspinor =       1
    nsppol =       1      nsym =      24    n1xccc =       0    ntypat =       2
    occopt =       1   xclevel =       1
-    mband =           5        mffmem =           1         mkmem =           8
       mpw =        2637          nfft =       64000          nkpt =          60
================================================================================
P This job should need less than                      20.874 Mbytes of memory.
  Rough estimation (10% accuracy) of disk space for files :
_ WF disk file :     12.073 Mbytes ; DEN or POT disk file :      0.490 Mbytes.
================================================================================

 Biggest array : f_fftgr(disk), with      7.8145 MBytes.
 memana : allocated an array of      7.815 Mbytes, for testing purposes.
 memana: allocated      20.874Mbytes, for testing purposes. 
 The job will continue.

 DATASET    2 : space group F-4 3 m (#216); Bravais cF (face-center cubic)

 getdim_nloc : deduce lmnmax  =  14, lnmax  =   6,
                      lmnmaxso=  25, lnmaxso=   9.
memory: analysis of memory needs
================================================================================
 Values of the parameters that define the memory need for DATASET  2.
     intxc =       0    ionmov =       0      iscf =      -2    lmnmax =       6
     lnmax =       6     mgfft =      40  mpssoang =       3    mqgrid =    3001
     natom =       2  nloc_mem =       1    nspden =       1   nspinor =       1
    nsppol =       1      nsym =      24    n1xccc =       0    ntypat =       2
    occopt =       1   xclevel =       1
-    mband =           8        mffmem =           1         mkmem =          48
       mpw =        2645          nfft =       64000          nkpt =         379
================================================================================
P This job should need less than                      28.583 Mbytes of memory.
  Rough estimation (10% accuracy) of disk space for files :
_ WF disk file :    122.372 Mbytes ; DEN or POT disk file :      0.490 Mbytes.
================================================================================

 Biggest array : cg(disk), with     15.5000 MBytes.
 memana : allocated an array of     15.500 Mbytes, for testing purposes.
 memana: allocated      28.583Mbytes, for testing purposes. 
 The job will continue.
--------------------------------------------------------------------------------
------------- Echo of variables that govern the present computation ------------
--------------------------------------------------------------------------------
-
- outvars: echo of selected default values                                      
-   iomode0 =  0 , fftalg0 =312 , wfoptalg0 =  0
-
- outvars: echo of global parameters not present in the input file              
-  max_nthreads =    8
-
 -outvars: echo values of preprocessed input variables --------
 
 These variables are accessible in NetCDF format (BS_3o_OUT.nc)

            acell      1.1993726641E+01  1.1993726641E+01  1.1993726641E+01 Bohr
              amu      1.14820000E+02  1.21753000E+02
             ecut      2.50000000E+01 Hartree
           enunit1          0
           enunit2          1
-          fftalg         312
           getden1          0
           getden2         -1
             iscf1          7
             iscf2         -2
           istwfk2       3    0    0    0    0    0    0    0    0    0
                         0    0    0    0    0    0    0    0    0    0
                         0    0    0    0    0    0    0    0    0    0
                         0    0    0    0    0    0    0    0    0    0
                         0    0    0    0    0    0    0    0    0    0
                       outvar_i_n : Printing only first  50 k-points.
           jdtset        1    2
              kpt1    -6.25000000E-02 -1.25000000E-01  0.00000000E+00
                      -6.25000000E-02 -2.50000000E-01  0.00000000E+00
                      -1.25000000E-01 -1.87500000E-01  0.00000000E+00
                      -6.25000000E-02 -1.87500000E-01  6.25000000E-02
                      -6.25000000E-02 -3.75000000E-01  0.00000000E+00
                      -1.25000000E-01 -3.12500000E-01  0.00000000E+00
                      -6.25000000E-02 -3.12500000E-01  6.25000000E-02
                      -1.87500000E-01 -2.50000000E-01  0.00000000E+00
                      -1.25000000E-01 -2.50000000E-01  6.25000000E-02
                      -6.25000000E-02 -2.50000000E-01  1.25000000E-01
                      -6.25000000E-02  5.00000000E-01  0.00000000E+00
                      -1.25000000E-01 -4.37500000E-01  0.00000000E+00
                      -6.25000000E-02 -4.37500000E-01  6.25000000E-02
                      -1.87500000E-01 -3.75000000E-01  0.00000000E+00
                      -1.25000000E-01 -3.75000000E-01  6.25000000E-02
                      -6.25000000E-02 -3.75000000E-01  1.25000000E-01
                      -2.50000000E-01 -3.12500000E-01  0.00000000E+00
                      -1.87500000E-01 -3.12500000E-01  6.25000000E-02
                      -1.25000000E-01 -3.12500000E-01  1.25000000E-01
                      -6.25000000E-02 -3.12500000E-01  1.87500000E-01
                      -6.25000000E-02  3.75000000E-01  0.00000000E+00
                      -1.25000000E-01  4.37500000E-01  0.00000000E+00
                      -1.87500000E-01  5.00000000E-01  0.00000000E+00
                      -1.25000000E-01  5.00000000E-01  6.25000000E-02
                      -2.50000000E-01 -4.37500000E-01  0.00000000E+00
                      -1.87500000E-01 -4.37500000E-01  6.25000000E-02
                      -1.25000000E-01 -4.37500000E-01  1.25000000E-01
                      -6.25000000E-02 -4.37500000E-01  1.87500000E-01
                      -3.12500000E-01 -3.75000000E-01  0.00000000E+00
                      -2.50000000E-01 -3.75000000E-01  6.25000000E-02
                      -1.87500000E-01 -3.75000000E-01  1.25000000E-01
                      -1.25000000E-01 -3.75000000E-01  1.87500000E-01
                      -6.25000000E-02 -3.75000000E-01  2.50000000E-01
                      -6.25000000E-02  2.50000000E-01  0.00000000E+00
                      -1.25000000E-01  3.12500000E-01  0.00000000E+00
                      -1.87500000E-01  3.75000000E-01  0.00000000E+00
                      -2.50000000E-01  4.37500000E-01  0.00000000E+00
                      -3.12500000E-01  5.00000000E-01  0.00000000E+00
                      -2.50000000E-01  5.00000000E-01  6.25000000E-02
                      -1.87500000E-01  5.00000000E-01  1.25000000E-01
                      -3.75000000E-01 -4.37500000E-01  0.00000000E+00
                      -3.12500000E-01 -4.37500000E-01  6.25000000E-02
                      -2.50000000E-01 -4.37500000E-01  1.25000000E-01
                      -1.87500000E-01 -4.37500000E-01  1.87500000E-01
                      -1.25000000E-01 -4.37500000E-01  2.50000000E-01
                      -6.25000000E-02 -4.37500000E-01  3.12500000E-01
                      -6.25000000E-02  1.25000000E-01  0.00000000E+00
                      -1.25000000E-01  1.87500000E-01  0.00000000E+00
                      -1.87500000E-01  2.50000000E-01  0.00000000E+00
                      -2.50000000E-01  3.12500000E-01  0.00000000E+00
              kpt2     5.00000000E-01  0.00000000E+00  0.00000000E+00
                       4.95000000E-01  0.00000000E+00  0.00000000E+00
                       4.90000000E-01  0.00000000E+00  0.00000000E+00
                       4.85000000E-01  0.00000000E+00  0.00000000E+00
                       4.80000000E-01  0.00000000E+00  0.00000000E+00
                       4.75000000E-01  0.00000000E+00  0.00000000E+00
                       4.70000000E-01  0.00000000E+00  0.00000000E+00
                       4.65000000E-01  0.00000000E+00  0.00000000E+00
                       4.60000000E-01  0.00000000E+00  0.00000000E+00
                       4.55000000E-01  0.00000000E+00  0.00000000E+00
                       4.50000000E-01  0.00000000E+00  0.00000000E+00
                       4.45000000E-01  0.00000000E+00  0.00000000E+00
                       4.40000000E-01  0.00000000E+00  0.00000000E+00
                       4.35000000E-01  0.00000000E+00  0.00000000E+00
                       4.30000000E-01  0.00000000E+00  0.00000000E+00
                       4.25000000E-01  0.00000000E+00  0.00000000E+00
                       4.20000000E-01  0.00000000E+00  0.00000000E+00
                       4.15000000E-01  0.00000000E+00  0.00000000E+00
                       4.10000000E-01  0.00000000E+00  0.00000000E+00
                       4.05000000E-01  0.00000000E+00  0.00000000E+00
                       4.00000000E-01  0.00000000E+00  0.00000000E+00
                       3.95000000E-01  0.00000000E+00  0.00000000E+00
                       3.90000000E-01  0.00000000E+00  0.00000000E+00
                       3.85000000E-01  0.00000000E+00  0.00000000E+00
                       3.80000000E-01  0.00000000E+00  0.00000000E+00
                       3.75000000E-01  0.00000000E+00  0.00000000E+00
                       3.70000000E-01  0.00000000E+00  0.00000000E+00
                       3.65000000E-01  0.00000000E+00  0.00000000E+00
                       3.60000000E-01  0.00000000E+00  0.00000000E+00
                       3.55000000E-01  0.00000000E+00  0.00000000E+00
                       3.50000000E-01  0.00000000E+00  0.00000000E+00
                       3.45000000E-01  0.00000000E+00  0.00000000E+00
                       3.40000000E-01  0.00000000E+00  0.00000000E+00
                       3.35000000E-01  0.00000000E+00  0.00000000E+00
                       3.30000000E-01  0.00000000E+00  0.00000000E+00
                       3.25000000E-01  0.00000000E+00  0.00000000E+00
                       3.20000000E-01  0.00000000E+00  0.00000000E+00
                       3.15000000E-01  0.00000000E+00  0.00000000E+00
                       3.10000000E-01  0.00000000E+00  0.00000000E+00
                       3.05000000E-01  0.00000000E+00  0.00000000E+00
                       3.00000000E-01  0.00000000E+00  0.00000000E+00
                       2.95000000E-01  0.00000000E+00  0.00000000E+00
                       2.90000000E-01  0.00000000E+00  0.00000000E+00
                       2.85000000E-01  0.00000000E+00  0.00000000E+00
                       2.80000000E-01  0.00000000E+00  0.00000000E+00
                       2.75000000E-01  0.00000000E+00  0.00000000E+00
                       2.70000000E-01  0.00000000E+00  0.00000000E+00
                       2.65000000E-01  0.00000000E+00  0.00000000E+00
                       2.60000000E-01  0.00000000E+00  0.00000000E+00
                       2.55000000E-01  0.00000000E+00  0.00000000E+00
                       outvar_i_n : Printing only first  50 k-points.
           kptopt1          1
           kptopt2         -3
         kptrlatt        8   -8    8     -8    8    8     -8   -8    8
          kptrlen1     9.59498131E+01
          kptrlen2     3.00000000E+01
P           mkmem1          8
P           mkmem2         48
            natom           2
            nband1          5
            nband2          8
           nbdbuf1          0
           nbdbuf2          2
           ndtset           2
           ndivsm1          0
           ndivsm2        100
            ngfft          40      40      40
             nkpt1         60
             nkpt2        379
            nstep         100
             nsym          24
           ntypat           2
              occ      2.000000  2.000000  2.000000  2.000000  0.000000
            rprim      0.0000000000E+00  5.0000000000E-01  5.0000000000E-01
                       5.0000000000E-01  0.0000000000E+00  5.0000000000E-01
                       5.0000000000E-01  5.0000000000E-01  0.0000000000E+00
           shiftk      5.00000000E-01  5.00000000E-01  5.00000000E-01
          spgroup         216
           symrel      1  0  0   0  1  0   0  0  1       0 -1  1   0 -1  0   1 -1  0
                      -1  0  0  -1  0  1  -1  1  0       0  1 -1   1  0 -1   0  0 -1
                      -1  0  0  -1  1  0  -1  0  1       0 -1  1   1 -1  0   0 -1  0
                       1  0  0   0  0  1   0  1  0       0  1 -1   0  0 -1   1  0 -1
                      -1  0  1  -1  1  0  -1  0  0       0 -1  0   1 -1  0   0 -1  1
                       1  0 -1   0  0 -1   0  1 -1       0  1  0   0  0  1   1  0  0
                       1  0 -1   0  1 -1   0  0 -1       0 -1  0   0 -1  1   1 -1  0
                      -1  0  1  -1  0  0  -1  1  0       0  1  0   1  0  0   0  0  1
                       0  0 -1   0  1 -1   1  0 -1       1 -1  0   0 -1  1   0 -1  0
                       0  0  1   1  0  0   0  1  0      -1  1  0  -1  0  0  -1  0  1
                       0  0  1   0  1  0   1  0  0       1 -1  0   0 -1  0   0 -1  1
                       0  0 -1   1  0 -1   0  1 -1      -1  1  0  -1  0  1  -1  0  0
           tolvrs1     1.00000000E-12
           tolvrs2     0.00000000E+00
           tolwfr1     0.00000000E+00
           tolwfr2     1.00000000E-16
            typat      1  2
              wtk1       0.01172    0.01172    0.01172    0.02344    0.01172    0.01172
                         0.02344    0.01172    0.02344    0.02344    0.01172    0.01172
                         0.02344    0.01172    0.02344    0.02344    0.01172    0.02344
                         0.02344    0.02344    0.01172    0.01172    0.01172    0.02344
                         0.01172    0.02344    0.02344    0.02344    0.01172    0.02344
                         0.02344    0.02344    0.02344    0.01172    0.01172    0.01172
                         0.01172    0.01172    0.02344    0.02344    0.01172    0.02344
                         0.02344    0.02344    0.02344    0.02344    0.01172    0.01172
                         0.01172    0.01172
              wtk2       1.00000    1.00000    1.00000    1.00000    1.00000    1.00000
                         1.00000    1.00000    1.00000    1.00000    1.00000    1.00000
                         1.00000    1.00000    1.00000    1.00000    1.00000    1.00000
                         1.00000    1.00000    1.00000    1.00000    1.00000    1.00000
                         1.00000    1.00000    1.00000    1.00000    1.00000    1.00000
                         1.00000    1.00000    1.00000    1.00000    1.00000    1.00000
                         1.00000    1.00000    1.00000    1.00000    1.00000    1.00000
                         1.00000    1.00000    1.00000    1.00000    1.00000    1.00000
                         1.00000    1.00000
                       outvars : Printing only first  50 k-points.
           xangst      0.0000000000E+00  0.0000000000E+00  0.0000000000E+00
                       1.5867016961E+00  1.5867016961E+00  1.5867016961E+00
            xcart      0.0000000000E+00  0.0000000000E+00  0.0000000000E+00
                       2.9984316602E+00  2.9984316603E+00  2.9984316602E+00
             xred      0.0000000000E+00  0.0000000000E+00  0.0000000000E+00
                       2.5000000000E-01  2.5000000000E-01  2.5000000000E-01
            znucl       49.00000   51.00000

================================================================================

 chkinp: Checking input parameters for consistency, jdtset=   1.

 chkinp: Checking input parameters for consistency, jdtset=   2.
 DATA TYPE INFORMATION: 
 REAL:      Data type name: REAL(DP) 
            Kind value:      8
            Precision:      15
            Smallest nonnegligible quantity relative to 1: 0.22204460E-015
            Smallest positive number:                      0.22250739E-307
            Largest representable number:                  0.17976931E+309
 INTEGER:   Data type name: INTEGER(default) 
            Kind value: 4
            Bit size:   32
            Largest representable number: 2147483647
 LOGICAL:   Data type name: LOGICAL 
            Kind value: 4
 CHARACTER: Data type name: CHARACTER             Kind value: 1

  ==== OpenMP parallelism is ON ====
- Max_threads:       8
- Num_threads:       8
- Num_procs:         8
- Dynamic:           F
- Nested:            F
 
  ==== Using MPI-2 specifications ==== 
  MPI-IO support is ON
  xmpi_tag_ub ................   2147483647
  xmpi_bsize_ch ..............            1
  xmpi_bsize_int .............            4
  xmpi_bsize_sp ..............            4
  xmpi_bsize_dp ..............            8
  xmpi_bsize_spc .............            8
  xmpi_bsize_dpc .............           16
  xmpio_bsize_frm ............            4
  xmpi_address_kind ..........            8
  xmpi_offset_kind ...........            8
  MPI_WTICK ..................    9.9999999999999995E-007

================================================================================
== DATASET  1 ==================================================================
-   mpi_nproc: 8, omp_nthreads: 8 (-1 if OMP is not activated)


--- !COMMENT
src_file: m_xgScalapack.F90
src_line: 236
message: |
    xgScalapack in auto mode
...


 getdim_nloc : deduce lmnmax  =  14, lnmax  =   6,
                      lmnmaxso=  25, lnmaxso=   9.
 Exchange-correlation functional for the present dataset will be:
  LDA: new Teter (4/93) with spin-polarized option - ixc=1
 Citation for XC functional:
  S. Goedecker, M. Teter, J. Huetter, PRB 54, 1703 (1996)

 Unit cell volume ucvol=  4.3132283E+02 bohr^3
 Angles (23,13,12)=  6.00000000E+01  6.00000000E+01  6.00000000E+01 degrees

 getcut: wavevector=  0.0000  0.0000  0.0000  ngfft=  40  40  40
         ecut(hartree)=     25.000   => boxcut(ratio)=   2.09549
- pspini: atom type   1  psp file is /Users/lassi/Desktop/abinit_InSb/simulations/pseudos/49in.3.hgh
- pspatm: opening atomic psp file    /Users/lassi/Desktop/abinit_InSb/simulations/pseudos/49in.3.hgh
- Hartwigsen-Goedecker-Hutter psp for In,  from PRB58, 3641 (1998)
- 49.00000   3.00000     10605                znucl, zion, pspdat
    3    1    2    0      2001   0.00000      pspcod,pspxc,lmax,lloc,mmax,r2well
 rloc=   0.6100000
 cc1 =   2.8657770; cc2 =   0.0000000; cc3 =   0.0000000; cc4 =   0.0000000
 rrs =   0.7706020; h11s=   1.2561940; h22s=  -0.3972550; h33s=  -0.2783290
 rrp =   0.8581320; h11p=   0.4944590; h22p=  -0.3807890; h33p=   0.0000000
                    k11p=   0.0663670; k22p=  -0.0055630; k33p=   0.0000000
 rrd =   1.0886910; h11d=   0.1292080; h22d=   0.0000000; h33d=   0.0000000
                    k11d=   0.0044480; k22d=   0.0000000; k33d=   0.0000000
-  Local part computed in reciprocal space.

 pspatm : COMMENT -
  the projectors are not normalized,
  so that the KB energies are not consistent with 
  definition in PRB44, 8503 (1991). 
  However, this does not influence the results obtained hereafter.
  pspatm : epsatm=   17.25867767
         --- l  ekb(1:nproj) -->
             0   -0.872822   -0.248925    2.063593
             1   -1.350798    1.725815
             2    3.321137
 pspatm: atomic psp has been read  and splines computed

- pspini: atom type   2  psp file is /Users/lassi/Desktop/abinit_InSb/simulations/pseudos/51sb.5.hgh
- pspatm: opening atomic psp file    /Users/lassi/Desktop/abinit_InSb/simulations/pseudos/51sb.5.hgh
- Hartwigsen-Goedecker-Hutter psp for Sb,  from PRB58, 3641 (1998)
- 51.00000   5.00000     10605                znucl, zion, pspdat
    3    1    2    0      2001   0.00000      pspcod,pspxc,lmax,lloc,mmax,r2well
 rloc=   0.5900000
 cc1 =   6.6802280; cc2 =   0.0000000; cc3 =   0.0000000; cc4 =   0.0000000
 rrs =   0.5976840; h11s=   1.9514770; h22s=   0.0375370; h33s=  -0.7866310
 rrp =   0.6721220; h11p=   0.9703130; h22p=  -0.4667310; h33p=   0.0000000
                    k11p=   0.1392220; k22p=   0.0235130; k33p=   0.0000000
 rrd =   0.8565570; h11d=   0.3001030; h22d=   0.0000000; h33d=   0.0000000
                    k11d=   0.0094320; k22d=   0.0000000; k33d=   0.0000000
-  Local part computed in reciprocal space.

 pspatm : COMMENT -
  the projectors are not normalized,
  so that the KB energies are not consistent with 
  definition in PRB44, 8503 (1991). 
  However, this does not influence the results obtained hereafter.
  pspatm : epsatm=   32.54401099
         --- l  ekb(1:nproj) -->
             0   -0.778424    0.200340    1.488128
             1   -0.479727    0.969445
             2    1.439558
 pspatm: atomic psp has been read  and splines computed

   3.98421509E+02                                ecore*ucvol(ha*bohr**3)
 ==== Info on pseudopotentials ====
  Norm-conserving pseudopotentials
  Number of pseudopotentials ..    2
  Number of types of atoms   ..    2
  Calculation with spin-orbit coupling 
  Max number of channels (spin-orbit included)   5
  - Atom type    1 has spin-orbit characteristics (pspso=  0)
  - Atom type    2 has spin-orbit characteristics (pspso=  0)
  Nonlocal part applied using Legendre polynomials
  Max number of non-local projectors over l and type   3
  Highest angular momentum +1 .......   3
  Max number of (l,n)   components ..   9
  Max number of (l,m,n) components ..   9

 Info on the Q-grid used for form factors in spline form: 
   Number of q-points for radial functions ffspl ..   3001
   Number of q-points for vlspl ...................   3001
   vloc is computed in Reciprocal Space
   model core charge treated in real-space

  XC functional for type 1 is 1
  Pseudo valence available: no
  XC functional for type 2 is 1
  Pseudo valence available: no

 wfconv:     5 bands initialized randomly with npw=  2607, for ikpt=     1
 wfconv:     5 bands initialized randomly with npw=  2586, for ikpt=     2
 wfconv:     5 bands initialized randomly with npw=  2594, for ikpt=     3
 wfconv:     5 bands initialized randomly with npw=  2592, for ikpt=     4
 wfconv:     5 bands initialized randomly with npw=  2570, for ikpt=     5
 wfconv:     5 bands initialized randomly with npw=  2577, for ikpt=     6
 wfconv:     5 bands initialized randomly with npw=  2573, for ikpt=     7
 wfconv:     5 bands initialized randomly with npw=  2585, for ikpt=     8
_setup2: Arith. and geom. avg. npw (full set) are    2575.391    2575.375
 initro: for itypat=  1, take decay length=      1.5500,
 initro: indeed, coreel=     46.0000, nval=  3 and densty=  0.0000E+00.
 initro: for itypat=  2, take decay length=      1.1500,
 initro: indeed, coreel=     46.0000, nval=  5 and densty=  0.0000E+00.

================================================================================

 getcut: wavevector=  0.0000  0.0000  0.0000  ngfft=  40  40  40
         ecut(hartree)=     25.000   => boxcut(ratio)=   2.09549

 1/G**2 cut-off applied in the following step : cutoff-mode = CRYSTAL

 1/G**2 cut-off applied in the following step : cutoff-mode = CRYSTAL

 1/G**2 cut-off applied in the following step : cutoff-mode = CRYSTAL

 ITER STEP NUMBER     1
 vtorho: nnsclo_now = 2, note that nnsclo, dbl_nnsclo, istep= 0 0 1
 Total charge density [el/Bohr^3]
      Maximum=    6.7457E-02  at reduced coord.    0.1500    0.1750    0.5250
      Minimum=    6.7446E-06  at reduced coord.    0.2500    0.2500    0.2500
   Integrated=    8.0000E+00

 1/G**2 cut-off applied in the following step : cutoff-mode = CRYSTAL
 ETOT  1  -7.6635080633830    -7.664E+00 3.311E-02 1.220E+02
 scprqt: <Vxc>= -2.8477558E-01 hartree

 Simple mixing update:
  residual square of the potential:    37.338666279746050
 scfcv_core: previous iteration took  2.38 [s]

 ITER STEP NUMBER     2
 vtorho: nnsclo_now = 2, note that nnsclo, dbl_nnsclo, istep= 0 0 2
 Total charge density [el/Bohr^3]
      Maximum=    6.8650E-02  at reduced coord.    0.1750    0.1750    0.5000
      Minimum=    1.2108E-06  at reduced coord.    0.2500    0.2500    0.2500
   Integrated=    8.0000E+00
 ETOT  2  -7.6832035334323    -1.970E-02 2.371E-02 5.890E+00
 scprqt: <Vxc>= -2.8506464E-01 hartree

 Pulay update with  1 previous iterations:
 mixing of old trial potential: alpha(m:m-4)=   1.11     -0.113
 scfcv_core: previous iteration took  2.25 [s]

 ITER STEP NUMBER     3
 vtorho: nnsclo_now = 1, note that nnsclo, dbl_nnsclo, istep= 0 0 3
 Total charge density [el/Bohr^3]
      Maximum=    6.7894E-02  at reduced coord.    0.1750    0.1750    0.5000
      Minimum=    1.2906E-06  at reduced coord.    0.2500    0.2500    0.2500
   Integrated=    8.0000E+00
 ETOT  3  -7.6836152090831    -4.117E-04 7.536E-03 6.112E-01
 scprqt: <Vxc>= -2.8565778E-01 hartree

 Pulay update with  2 previous iterations:
 mixing of old trial potential: alpha(m:m-4)=   1.39     -0.390      0.628E-03
 scfcv_core: previous iteration took  1.20 [s]

 ITER STEP NUMBER     4
 vtorho: nnsclo_now = 1, note that nnsclo, dbl_nnsclo, istep= 0 0 4
 Total charge density [el/Bohr^3]
      Maximum=    6.7709E-02  at reduced coord.    0.1750    0.1750    0.5000
      Minimum=    1.3085E-06  at reduced coord.    0.2500    0.2500    0.2500
   Integrated=    8.0000E+00
 ETOT  4  -7.6836608547470    -4.565E-05 6.394E-04 7.390E-03
 scprqt: <Vxc>= -2.8589178E-01 hartree

 Pulay update with  3 previous iterations:
 mixing of old trial potential: alpha(m:m-4)=   1.28     -0.353      0.686E-01  0.308E-02
 scfcv_core: previous iteration took  1.18 [s]

 ITER STEP NUMBER     5
 vtorho: nnsclo_now = 1, note that nnsclo, dbl_nnsclo, istep= 0 0 5
 Total charge density [el/Bohr^3]
      Maximum=    6.7705E-02  at reduced coord.    0.1750    0.1750    0.5000
      Minimum=    1.3039E-06  at reduced coord.    0.2500    0.2500    0.2500
   Integrated=    8.0000E+00
 ETOT  5  -7.6836612642828    -4.095E-07 3.067E-05 7.204E-05
 scprqt: <Vxc>= -2.8591588E-01 hartree

 Pulay update with  4 previous iterations:
 mixing of old trial potential: alpha(m:m-4)=   1.31     -0.388      0.955E-01 -0.194E-01 -0.495E-03
 scfcv_core: previous iteration took  1.17 [s]

 ITER STEP NUMBER     6
 vtorho: nnsclo_now = 1, note that nnsclo, dbl_nnsclo, istep= 0 0 6
 Total charge density [el/Bohr^3]
      Maximum=    6.7703E-02  at reduced coord.    0.1750    0.1750    0.5000
      Minimum=    1.3043E-06  at reduced coord.    0.2500    0.2500    0.2500
   Integrated=    8.0000E+00
 ETOT  6  -7.6836612689426    -4.660E-09 3.560E-05 3.539E-07
 scprqt: <Vxc>= -2.8591769E-01 hartree

 Pulay update with  5 previous iterations:
 mixing of old trial potential: alpha(m:m-4)=   1.19     -0.239      0.637E-01 -0.154E-01  0.327E-02
 scfcv_core: previous iteration took  1.29 [s]

 ITER STEP NUMBER     7
 vtorho: nnsclo_now = 1, note that nnsclo, dbl_nnsclo, istep= 0 0 7
 Total charge density [el/Bohr^3]
      Maximum=    6.7703E-02  at reduced coord.    0.1750    0.1750    0.5000
      Minimum=    1.3043E-06  at reduced coord.    0.2500    0.2500    0.2500
   Integrated=    8.0000E+00
 ETOT  7  -7.6836612689698    -2.717E-11 1.524E-06 1.875E-08
 scprqt: <Vxc>= -2.8591761E-01 hartree

 Pulay update with  6 previous iterations:
 mixing of old trial potential: alpha(m:m-4)=   1.37     -0.420      0.663E-01 -0.174E-01  0.413E-02
 scfcv_core: previous iteration took  1.36 [s]

 ITER STEP NUMBER     8
 vtorho: nnsclo_now = 1, note that nnsclo, dbl_nnsclo, istep= 0 0 8
 Total charge density [el/Bohr^3]
      Maximum=    6.7703E-02  at reduced coord.    0.1750    0.1750    0.5000
      Minimum=    1.3043E-06  at reduced coord.    0.2500    0.2500    0.2500
   Integrated=    8.0000E+00
 ETOT  8  -7.6836612689706    -8.828E-13 2.009E-06 1.218E-09
 scprqt: <Vxc>= -2.8591762E-01 hartree

 Pulay update with  7 previous iterations:
 mixing of old trial potential: alpha(m:m-4)=   1.45     -0.547      0.109     -0.144E-01  0.384E-02
 scfcv_core: previous iteration took  1.19 [s]

 ITER STEP NUMBER     9
 vtorho: nnsclo_now = 1, note that nnsclo, dbl_nnsclo, istep= 0 0 9
 Total charge density [el/Bohr^3]
      Maximum=    6.7703E-02  at reduced coord.    0.1750    0.1750    0.5000
      Minimum=    1.3043E-06  at reduced coord.    0.2500    0.2500    0.2500
   Integrated=    8.0000E+00
 ETOT  9  -7.6836612689707    -5.240E-14 9.037E-08 1.303E-11
 scprqt: <Vxc>= -2.8591761E-01 hartree

 Pulay update with  7 previous iterations:
 mixing of old trial potential: alpha(m:m-4)=   1.23     -0.307      0.887E-01 -0.168E-01  0.222E-02
 scfcv_core: previous iteration took  1.13 [s]

 ITER STEP NUMBER    10
 vtorho: nnsclo_now = 1, note that nnsclo, dbl_nnsclo, istep= 0 0 10
 Total charge density [el/Bohr^3]
      Maximum=    6.7703E-02  at reduced coord.    0.1750    0.1750    0.5000
      Minimum=    1.3043E-06  at reduced coord.    0.2500    0.2500    0.2500
   Integrated=    8.0000E+00
 ETOT 10  -7.6836612689706     9.859E-14 1.183E-07 1.586E-13
 scprqt: <Vxc>= -2.8591761E-01 hartree

 At SCF step   10       vres2   =  1.59E-13 < tolvrs=  1.00E-12 =>converged.

 Cartesian components of stress tensor (hartree/bohr^3)
  sigma(1 1)=  1.40523016E-07  sigma(3 2)=  0.00000000E+00
  sigma(2 2)=  1.40523016E-07  sigma(3 1)=  0.00000000E+00
  sigma(3 3)=  1.40523016E-07  sigma(2 1)=  0.00000000E+00


   fftdatar_write: About to write data to: BS_3o_DS1_DEN with iomode: IO_MODE_FORTRAN
 IO operation completed. cpu:  0.00 [s] , wall:  0.00 [s] <<< TIME
- Creating netcdf file WITHOUT MPI-IO support: BS_3o_DS1_GSR.nc
 Integrated electronic density in atomic spheres:
 ------------------------------------------------
 Atom  Sphere_radius  Integrated_density
    1        2.00000          0.67784251
    2        2.00000          1.55130221
================================================================================

 ----iterations are completed or convergence reached----


 === Gap info ===
  >>>> For spin  1
   Minimum direct gap =   0.9277 [eV], located at k-point      :  -0.0625  0.0000  0.0000
   Fundamental gap    =   0.7934 [eV], Top of valence bands at :  -0.0625  0.0000  0.0000
                                       Bottom of conduction at :  -0.4375  0.0000  0.0000
 Mean square residual over all n,k,spin=   45.383E-11; max=  11.835E-08
  -0.0625 -0.1250  0.0000    1  8.69444E-14 kpt; spin; max resid(k); each band:
   2.87E-18  4.26E-18  3.74E-19  8.07E-19  8.69E-14
  -0.0625 -0.2500  0.0000    1  2.50487E-16 kpt; spin; max resid(k); each band:
   4.64E-18  5.74E-18  1.77E-19  2.07E-18  2.50E-16
  -0.1250 -0.1875  0.0000    1  1.18347E-07 kpt; spin; max resid(k); each band:
   2.55E-18  3.70E-18  7.36E-20  1.30E-18  1.18E-07
  -0.0625 -0.1875  0.0625    1  2.28251E-11 kpt; spin; max resid(k); each band:
   3.29E-18  4.46E-18  1.53E-18  9.62E-19  2.28E-11
  -0.0625 -0.3750  0.0000    1  1.34765E-17 kpt; spin; max resid(k); each band:
   5.44E-18  6.78E-18  2.52E-18  1.92E-19  1.35E-17
  -0.1250 -0.3125  0.0000    1  8.96092E-14 kpt; spin; max resid(k); each band:
   4.63E-18  5.24E-18  3.67E-18  2.43E-19  8.96E-14
  -0.0625 -0.3125  0.0625    1  5.13467E-17 kpt; spin; max resid(k); each band:
   4.97E-18  5.87E-18  2.74E-18  7.20E-19  5.13E-17
  -0.1875 -0.2500  0.0000    1  1.99331E-12 kpt; spin; max resid(k); each band:
   5.43E-18  2.61E-18  1.52E-18  4.55E-19  1.99E-12
  -0.1250 -0.2500  0.0625    1  2.71925E-10 kpt; spin; max resid(k); each band:
   4.06E-18  3.36E-18  2.77E-18  1.31E-18  2.72E-10
  -0.0625 -0.2500  0.1250    1  2.73008E-14 kpt; spin; max resid(k); each band:
   3.72E-18  3.95E-18  1.89E-18  6.99E-19  2.73E-14
  -0.0625  0.5000  0.0000    1  1.66482E-17 kpt; spin; max resid(k); each band:
   5.02E-18  6.78E-18  2.48E-18  2.85E-19  1.66E-17
  -0.1250 -0.4375  0.0000    1  5.76445E-17 kpt; spin; max resid(k); each band:
   4.87E-18  6.09E-18  4.89E-18  4.01E-19  5.76E-17
  -0.0625 -0.4375  0.0625    1  8.40598E-17 kpt; spin; max resid(k); each band:
   4.91E-18  6.26E-18  5.17E-18  9.70E-19  8.41E-17
  -0.1875 -0.3750  0.0000    1  5.29729E-14 kpt; spin; max resid(k); each band:
   4.79E-18  4.09E-18  4.85E-18  6.59E-20  5.30E-14
  -0.1250 -0.3750  0.0625    1  2.09731E-14 kpt; spin; max resid(k); each band:
   4.50E-18  5.02E-18  5.93E-18  8.28E-19  2.10E-14
  -0.0625 -0.3750  0.1250    1  8.30719E-17 kpt; spin; max resid(k); each band:
   4.52E-18  4.82E-18  4.24E-18  5.15E-19  8.31E-17
  -0.2500 -0.3125  0.0000    1  1.92137E-16 kpt; spin; max resid(k); each band:
   5.93E-18  2.49E-18  1.60E-18  9.17E-20  1.92E-16
  -0.1875 -0.3125  0.0625    1  1.74836E-13 kpt; spin; max resid(k); each band:
   5.27E-18  2.54E-18  3.49E-18  1.10E-18  1.75E-13
  -0.1250 -0.3125  0.1250    1  1.26125E-09 kpt; spin; max resid(k); each band:
   3.44E-18  3.22E-18  3.02E-18  1.20E-18  1.26E-09
  -0.0625 -0.3125  0.1875    1  6.68124E-15 kpt; spin; max resid(k); each band:
   4.04E-18  2.77E-18  3.56E-18  6.69E-19  6.68E-15
  -0.0625  0.3750  0.0000    1  2.07757E-17 kpt; spin; max resid(k); each band:
   5.38E-18  6.82E-18  2.23E-18  5.27E-19  2.08E-17
  -0.1250  0.4375  0.0000    1  5.10017E-17 kpt; spin; max resid(k); each band:
   4.61E-18  5.88E-18  5.14E-18  1.26E-19  5.10E-17
  -0.1875  0.5000  0.0000    1  3.99603E-17 kpt; spin; max resid(k); each band:
   3.93E-18  4.78E-18  5.53E-18  4.51E-19  4.00E-17
  -0.1250  0.5000  0.0625    1  2.14112E-16 kpt; spin; max resid(k); each band:
   4.10E-18  5.09E-18  5.35E-18  8.58E-19  2.14E-16
  -0.2500 -0.4375  0.0000    1  1.47799E-16 kpt; spin; max resid(k); each band:
   4.33E-18  3.39E-18  5.56E-18  5.67E-20  1.48E-16
  -0.1875 -0.4375  0.0625    1  6.05656E-16 kpt; spin; max resid(k); each band:
   3.85E-18  3.85E-18  5.65E-18  8.71E-19  6.06E-16
  -0.1250 -0.4375  0.1250    1  1.39954E-13 kpt; spin; max resid(k); each band:
   3.48E-18  3.70E-18  3.18E-18  1.61E-18  1.40E-13
  -0.0625 -0.4375  0.1875    1  3.84509E-17 kpt; spin; max resid(k); each band:
   3.43E-18  3.42E-18  5.30E-18  6.77E-19  3.85E-17
  -0.3125 -0.3750  0.0000    1  2.55792E-15 kpt; spin; max resid(k); each band:
   5.45E-18  2.65E-18  1.61E-18  2.17E-19  2.56E-15
  -0.2500 -0.3750  0.0625    1  1.13016E-13 kpt; spin; max resid(k); each band:
   4.93E-18  2.50E-18  3.76E-18  1.18E-18  1.13E-13
  -0.1875 -0.3750  0.1250    1  6.56816E-10 kpt; spin; max resid(k); each band:
   3.76E-18  2.33E-18  5.98E-18  2.06E-18  6.57E-10
  -0.1250 -0.3750  0.1875    1  6.23497E-12 kpt; spin; max resid(k); each band:
   2.95E-18  2.06E-18  2.66E-18  1.30E-18  6.23E-12
  -0.0625 -0.3750  0.2500    1  4.31298E-17 kpt; spin; max resid(k); each band:
   3.25E-18  1.80E-18  7.61E-18  8.72E-19  4.31E-17
  -0.0625  0.2500  0.0000    1  2.41609E-17 kpt; spin; max resid(k); each band:
   5.08E-18  6.13E-18  1.79E-18  8.01E-20  2.42E-17
  -0.1250  0.3125  0.0000    1  3.55641E-17 kpt; spin; max resid(k); each band:
   5.00E-18  5.58E-18  3.06E-18  5.96E-19  3.56E-17
  -0.1875  0.3750  0.0000    1  7.67554E-17 kpt; spin; max resid(k); each band:
   4.20E-18  4.20E-18  5.95E-18  6.57E-19  7.68E-17
  -0.2500  0.4375  0.0000    1  4.25629E-17 kpt; spin; max resid(k); each band:
   3.12E-18  3.25E-18  6.86E-18  3.99E-20  4.26E-17
  -0.3125  0.5000  0.0000    1  3.56875E-16 kpt; spin; max resid(k); each band:
   3.10E-18  3.74E-18  6.13E-18  4.99E-20  3.57E-16
  -0.2500  0.5000  0.0625    1  6.75122E-17 kpt; spin; max resid(k); each band:
   2.90E-18  2.78E-18  9.39E-18  1.54E-18  6.75E-17
  -0.1875  0.5000  0.1250    1  1.37846E-13 kpt; spin; max resid(k); each band:
   2.59E-18  2.37E-18  7.07E-18  2.41E-18  1.38E-13
  -0.3750 -0.4375  0.0000    1  1.17826E-10 kpt; spin; max resid(k); each band:
   4.11E-18  2.84E-18  1.57E-18  4.45E-20  1.18E-10
  -0.3125 -0.4375  0.0625    1  8.72165E-12 kpt; spin; max resid(k); each band:
   3.53E-18  2.74E-18  4.00E-18  1.30E-18  8.72E-12
  -0.2500 -0.4375  0.1250    1  3.17059E-14 kpt; spin; max resid(k); each band:
   2.83E-18  2.50E-18  6.96E-18  2.39E-18  3.17E-14
  -0.1875 -0.4375  0.1875    1  1.19189E-10 kpt; spin; max resid(k); each band:
   1.54E-18  1.42E-18  2.44E-18  3.01E-18  1.19E-10
  -0.1250 -0.4375  0.2500    1  8.25866E-17 kpt; spin; max resid(k); each band:
   2.20E-18  1.32E-18  6.22E-18  2.78E-18  8.26E-17
  -0.0625 -0.4375  0.3125    1  6.56914E-17 kpt; spin; max resid(k); each band:
   2.02E-18  2.45E-18  8.74E-18  1.50E-18  6.57E-17
  -0.0625  0.1250  0.0000    1  1.31608E-15 kpt; spin; max resid(k); each band:
   3.29E-18  4.57E-18  1.12E-18  2.71E-19  1.32E-15
  -0.1250  0.1875  0.0000    1  3.62149E-16 kpt; spin; max resid(k); each band:
   3.85E-18  4.37E-18  1.68E-18  4.71E-20  3.62E-16
  -0.1875  0.2500  0.0000    1  5.64539E-17 kpt; spin; max resid(k); each band:
   4.30E-18  3.46E-18  3.12E-18  4.07E-19  5.65E-17
  -0.2500  0.3125  0.0000    1  4.57263E-17 kpt; spin; max resid(k); each band:
   4.03E-18  2.29E-18  5.21E-18  3.71E-20  4.57E-17
 outwf : prtvol=0 or 1, do not print more k-points.


   outwf: writing wavefunctions to: BS_3o_DS1_WFK with iomode: IO_MODE_FORTRAN_MASTER
 WFK output completed. cpu:  0.03 [s] , wall:  0.04 [s] <<< TIME
 prteigrs : about to open file BS_3o_DS1_EIG
 Fermi (or HOMO) energy (hartree) =   0.02870   Average Vxc (hartree)=  -0.28592
 Eigenvalues (hartree) for nkpt=  60  k points:
 kpt#   1, nband=  5, wtk=  0.01172, kpt= -0.0625 -0.1250  0.0000 (reduced coord)
  -0.37107   -0.02914    0.01695    0.01944    0.08599
 kpt#   2, nband=  5, wtk=  0.01172, kpt= -0.0625 -0.2500  0.0000 (reduced coord)
  -0.35782   -0.09639    0.00134    0.00461    0.08582
 kpt#   3, nband=  5, wtk=  0.01172, kpt= -0.1250 -0.1875  0.0000 (reduced coord)
  -0.36421   -0.06160    0.00016    0.00074    0.10767
 kpt#   4, nband=  5, wtk=  0.02344, kpt= -0.0625 -0.1875  0.0625 (reduced coord)
  -0.36096   -0.07927   -0.01184    0.01197    0.10225
 kpt#   5, nband=  5, wtk=  0.01172, kpt= -0.0625 -0.3750  0.0000 (reduced coord)
  -0.33826   -0.15398   -0.01089   -0.00886    0.07531
 kpt#   6, nband=  5, wtk=  0.01172, kpt= -0.1250 -0.3125  0.0000 (reduced coord)
  -0.34837   -0.12010   -0.01857   -0.01347    0.10283
 kpt#   7, nband=  5, wtk=  0.02344, kpt= -0.0625 -0.3125  0.0625 (reduced coord)
  -0.34291   -0.13760   -0.02918   -0.00279    0.09447
 kpt#   8, nband=  5, wtk=  0.01172, kpt= -0.1875 -0.2500  0.0000 (reduced coord)
  -0.35419   -0.09392   -0.01834   -0.01683    0.10049
 kpt#   9, nband=  5, wtk=  0.02344, kpt= -0.1250 -0.2500  0.0625 (reduced coord)
  -0.35120   -0.10659   -0.02951   -0.00790    0.11315
 kpt#  10, nband=  5, wtk=  0.02344, kpt= -0.0625 -0.2500  0.1250 (reduced coord)
  -0.34537   -0.12421   -0.04580    0.00064    0.11410
 kpt#  11, nband=  5, wtk=  0.01172, kpt= -0.0625  0.5000  0.0000 (reduced coord)
  -0.32414   -0.18392   -0.02007   -0.01068    0.07000
 kpt#  12, nband=  5, wtk=  0.01172, kpt= -0.1250 -0.4375  0.0000 (reduced coord)
  -0.32894   -0.16794   -0.03602   -0.01875    0.09431
 kpt#  13, nband=  5, wtk=  0.02344, kpt= -0.0625 -0.4375  0.0625 (reduced coord)
  -0.32503   -0.17785   -0.03677   -0.01317    0.08774
 kpt#  14, nband=  5, wtk=  0.01172, kpt= -0.1875 -0.3750  0.0000 (reduced coord)
  -0.33653   -0.14245   -0.04214   -0.02690    0.10449
 kpt#  15, nband=  5, wtk=  0.02344, kpt= -0.1250 -0.3750  0.0625 (reduced coord)
  -0.33213   -0.15547   -0.04799   -0.02018    0.10833
 kpt#  16, nband=  5, wtk=  0.02344, kpt= -0.0625 -0.3750  0.1250 (reduced coord)
  -0.32624   -0.16774   -0.05866   -0.01472    0.10813
 kpt#  17, nband=  5, wtk=  0.01172, kpt= -0.2500 -0.3125  0.0000 (reduced coord)
  -0.34145   -0.12507   -0.03495   -0.03176    0.08951
 kpt#  18, nband=  5, wtk=  0.02344, kpt= -0.1875 -0.3125  0.0625 (reduced coord)
  -0.33886   -0.13310   -0.04519   -0.02695    0.10604
 kpt#  19, nband=  5, wtk=  0.02344, kpt= -0.1250 -0.3125  0.1250 (reduced coord)
  -0.33390   -0.14549   -0.06014   -0.01991    0.12639
 kpt#  20, nband=  5, wtk=  0.02344, kpt= -0.0625 -0.3125  0.1875 (reduced coord)
  -0.32706   -0.15868   -0.07436   -0.01564    0.11977
 kpt#  21, nband=  5, wtk=  0.01172, kpt= -0.0625  0.3750  0.0000 (reduced coord)
  -0.33199   -0.16810   -0.02059   -0.00394    0.07206
 kpt#  22, nband=  5, wtk=  0.01172, kpt= -0.1250  0.4375  0.0000 (reduced coord)
  -0.32132   -0.18287   -0.04533   -0.01454    0.09151
 kpt#  23, nband=  5, wtk=  0.01172, kpt= -0.1875  0.5000  0.0000 (reduced coord)
  -0.31937   -0.17774   -0.06146   -0.02715    0.10212
 kpt#  24, nband=  5, wtk=  0.02344, kpt= -0.1250  0.5000  0.0625 (reduced coord)
  -0.31856   -0.18235   -0.05796   -0.02314    0.10515
 kpt#  25, nband=  5, wtk=  0.01172, kpt= -0.2500 -0.4375  0.0000 (reduced coord)
  -0.32331   -0.16293   -0.06195   -0.03770    0.09705
 kpt#  26, nband=  5, wtk=  0.02344, kpt= -0.1875 -0.4375  0.0625 (reduced coord)
  -0.32047   -0.17054   -0.06665   -0.03427    0.10851
 kpt#  27, nband=  5, wtk=  0.02344, kpt= -0.1250 -0.4375  0.1250 (reduced coord)
  -0.31700   -0.17764   -0.07241   -0.03148    0.12353
 kpt#  28, nband=  5, wtk=  0.02344, kpt= -0.0625 -0.4375  0.1875 (reduced coord)
  -0.31372   -0.18210   -0.07834   -0.02980    0.11191
 kpt#  29, nband=  5, wtk=  0.01172, kpt= -0.3125 -0.3750  0.0000 (reduced coord)
  -0.32689   -0.15382   -0.04796   -0.04355    0.08193
 kpt#  30, nband=  5, wtk=  0.02344, kpt= -0.2500 -0.3750  0.0625 (reduced coord)
  -0.32491   -0.15787   -0.05783   -0.04224    0.09806
 kpt#  31, nband=  5, wtk=  0.02344, kpt= -0.1875 -0.3750  0.1250 (reduced coord)
  -0.32122   -0.16479   -0.07093   -0.03979    0.12469
 kpt#  32, nband=  5, wtk=  0.02344, kpt= -0.1250 -0.3750  0.1875 (reduced coord)
  -0.31638   -0.17271   -0.08300   -0.03591    0.13620
 kpt#  33, nband=  5, wtk=  0.02344, kpt= -0.0625 -0.3750  0.2500 (reduced coord)
  -0.31120   -0.17992   -0.09129   -0.03313    0.11205
 kpt#  34, nband=  5, wtk=  0.01172, kpt= -0.0625  0.2500  0.0000 (reduced coord)
  -0.35169   -0.11745   -0.01183    0.00952    0.08057
 kpt#  35, nband=  5, wtk=  0.01172, kpt= -0.1250  0.3125  0.0000 (reduced coord)
  -0.33528   -0.15412   -0.04392   -0.00208    0.09548
 kpt#  36, nband=  5, wtk=  0.01172, kpt= -0.1875  0.3750  0.0000 (reduced coord)
  -0.31973   -0.17693   -0.06948   -0.01766    0.10515
 kpt#  37, nband=  5, wtk=  0.01172, kpt= -0.2500  0.4375  0.0000 (reduced coord)
  -0.31128   -0.18328   -0.08215   -0.03318    0.10006
 kpt#  38, nband=  5, wtk=  0.01172, kpt= -0.3125  0.5000  0.0000 (reduced coord)
  -0.31072   -0.18016   -0.07598   -0.04519    0.09012
 kpt#  39, nband=  5, wtk=  0.02344, kpt= -0.2500  0.5000  0.0625 (reduced coord)
  -0.30986   -0.18215   -0.08187   -0.04350    0.10339
 kpt#  40, nband=  5, wtk=  0.02344, kpt= -0.1875  0.5000  0.1250 (reduced coord)
  -0.30924   -0.18364   -0.08418   -0.04487    0.12887
 kpt#  41, nband=  5, wtk=  0.01172, kpt= -0.3750 -0.4375  0.0000 (reduced coord)
  -0.31248   -0.17791   -0.05684   -0.05165    0.07853
 kpt#  42, nband=  5, wtk=  0.02344, kpt= -0.3125 -0.4375  0.0625 (reduced coord)
  -0.31132   -0.17885   -0.06673   -0.05261    0.09293
 kpt#  43, nband=  5, wtk=  0.02344, kpt= -0.2500 -0.4375  0.1250 (reduced coord)
  -0.30928   -0.18075   -0.07771   -0.05522    0.11980
 kpt#  44, nband=  5, wtk=  0.02344, kpt= -0.1875 -0.4375  0.1875 (reduced coord)
  -0.30689   -0.18338   -0.08673   -0.05516    0.15014
 kpt#  45, nband=  5, wtk=  0.02344, kpt= -0.1250 -0.4375  0.2500 (reduced coord)
  -0.30474   -0.18624   -0.09147   -0.05180    0.12789
 kpt#  46, nband=  5, wtk=  0.02344, kpt= -0.0625 -0.4375  0.3125 (reduced coord)
  -0.30320   -0.18883   -0.09039   -0.04802    0.09994
 kpt#  47, nband=  5, wtk=  0.01172, kpt= -0.0625  0.1250  0.0000 (reduced coord)
  -0.36766   -0.05212    0.00559    0.02435    0.08630
 kpt#  48, nband=  5, wtk=  0.01172, kpt= -0.1250  0.1875  0.0000 (reduced coord)
  -0.35458   -0.10170   -0.02894    0.01434    0.10154
 kpt#  49, nband=  5, wtk=  0.01172, kpt= -0.1875  0.2500  0.0000 (reduced coord)
  -0.33710   -0.14220   -0.06155   -0.00123    0.11158
 kpt#  50, nband=  5, wtk=  0.01172, kpt= -0.2500  0.3125  0.0000 (reduced coord)
  -0.31911   -0.17055   -0.08526   -0.01940    0.10893
 prteigrs : prtvol=0 or 1, do not print more k-points.

 Total charge density [el/Bohr^3]
      Maximum=    6.7703E-02  at reduced coord.    0.1750    0.1750    0.5000
 Next maximum=    6.7703E-02  at reduced coord.    0.1500    0.1750    0.5000
      Minimum=    1.3043E-06  at reduced coord.    0.2500    0.2500    0.2500
 Next minimum=    1.1527E-05  at reduced coord.    0.0000    0.0000    0.0000
   Integrated=    8.0000E+00

 Cartesian components of stress tensor (hartree/bohr^3)
  sigma(1 1)=  1.40523016E-07  sigma(3 2)=  0.00000000E+00
  sigma(2 2)=  1.40523016E-07  sigma(3 1)=  0.00000000E+00
  sigma(3 3)=  1.40523016E-07  sigma(2 1)=  0.00000000E+00

-Cartesian components of stress tensor (GPa)         [Pressure= -4.1343E-03 GPa]
- sigma(1 1)=  4.13432916E-03  sigma(3 2)=  0.00000000E+00
- sigma(2 2)=  4.13432916E-03  sigma(3 1)=  0.00000000E+00
- sigma(3 3)=  4.13432916E-03  sigma(2 1)=  0.00000000E+00

================================================================================
== DATASET  2 ==================================================================
-   mpi_nproc: 8, omp_nthreads: 8 (-1 if OMP is not activated)


--- !COMMENT
src_file: m_xgScalapack.F90
src_line: 236
message: |
    xgScalapack in auto mode
...

 mkfilename : getden/=0, take file _DEN from output of DATASET   1.


 getdim_nloc : deduce lmnmax  =  14, lnmax  =   6,
                      lmnmaxso=  25, lnmaxso=   9.
 Exchange-correlation functional for the present dataset will be:
  LDA: new Teter (4/93) with spin-polarized option - ixc=1
 Citation for XC functional:
  S. Goedecker, M. Teter, J. Huetter, PRB 54, 1703 (1996)

 Unit cell volume ucvol=  4.3132283E+02 bohr^3
 Angles (23,13,12)=  6.00000000E+01  6.00000000E+01  6.00000000E+01 degrees

 getcut: wavevector=  0.0000  0.0000  0.0000  ngfft=  40  40  40
         ecut(hartree)=     25.000   => boxcut(ratio)=   2.09549
 wfconv:     8 bands initialized randomly with npw=  1268, for ikpt=     1
 wfconv:     8 bands initialized randomly with npw=  2536, for ikpt=     2
 wfconv:     8 bands initialized randomly with npw=  2536, for ikpt=     3
 wfconv:     8 bands initialized randomly with npw=  2551, for ikpt=     4
 wfconv:     8 bands initialized randomly with npw=  2551, for ikpt=     5
 wfconv:     8 bands initialized randomly with npw=  2566, for ikpt=     6
 wfconv:     8 bands initialized randomly with npw=  2566, for ikpt=     7
 wfconv:     8 bands initialized randomly with npw=  2566, for ikpt=     8
 wfconv:     8 bands initialized randomly with npw=  2563, for ikpt=     9
 wfconv:     8 bands initialized randomly with npw=  2563, for ikpt=    10
 wfconv:     8 bands initialized randomly with npw=  2563, for ikpt=    11
 wfconv:     8 bands initialized randomly with npw=  2563, for ikpt=    12
 wfconv:     8 bands initialized randomly with npw=  2563, for ikpt=    13
 wfconv:     8 bands initialized randomly with npw=  2563, for ikpt=    14
 wfconv:     8 bands initialized randomly with npw=  2563, for ikpt=    15
 wfconv:     8 bands initialized randomly with npw=  2569, for ikpt=    16
 wfconv:     8 bands initialized randomly with npw=  2569, for ikpt=    17
 wfconv:     8 bands initialized randomly with npw=  2575, for ikpt=    18
 wfconv:     8 bands initialized randomly with npw=  2581, for ikpt=    19
 wfconv:     8 bands initialized randomly with npw=  2581, for ikpt=    20
 wfconv:     8 bands initialized randomly with npw=  2584, for ikpt=    21
 wfconv:     8 bands initialized randomly with npw=  2584, for ikpt=    22
 wfconv:     8 bands initialized randomly with npw=  2578, for ikpt=    23
 wfconv:     8 bands initialized randomly with npw=  2578, for ikpt=    24
 wfconv:     8 bands initialized randomly with npw=  2572, for ikpt=    25
 wfconv:     8 bands initialized randomly with npw=  2572, for ikpt=    26
 wfconv:     8 bands initialized randomly with npw=  2569, for ikpt=    27
 wfconv:     8 bands initialized randomly with npw=  2569, for ikpt=    28
 wfconv:     8 bands initialized randomly with npw=  2569, for ikpt=    29
 wfconv:     8 bands initialized randomly with npw=  2575, for ikpt=    30
 wfconv:     8 bands initialized randomly with npw=  2575, for ikpt=    31
 wfconv:     8 bands initialized randomly with npw=  2575, for ikpt=    32
 wfconv:     8 bands initialized randomly with npw=  2575, for ikpt=    33
 wfconv:     8 bands initialized randomly with npw=  2575, for ikpt=    34
 wfconv:     8 bands initialized randomly with npw=  2575, for ikpt=    35
 wfconv:     8 bands initialized randomly with npw=  2575, for ikpt=    36
 wfconv:     8 bands initialized randomly with npw=  2575, for ikpt=    37
 wfconv:     8 bands initialized randomly with npw=  2575, for ikpt=    38
 wfconv:     8 bands initialized randomly with npw=  2575, for ikpt=    39
 wfconv:     8 bands initialized randomly with npw=  2575, for ikpt=    40
 wfconv:     8 bands initialized randomly with npw=  2575, for ikpt=    41
 wfconv:     8 bands initialized randomly with npw=  2575, for ikpt=    42
 wfconv:     8 bands initialized randomly with npw=  2578, for ikpt=    43
 wfconv:     8 bands initialized randomly with npw=  2584, for ikpt=    44
 wfconv:     8 bands initialized randomly with npw=  2578, for ikpt=    45
 wfconv:     8 bands initialized randomly with npw=  2578, for ikpt=    46
 wfconv:     8 bands initialized randomly with npw=  2578, for ikpt=    47
 wfconv:     8 bands initialized randomly with npw=  2578, for ikpt=    48
 About to read data(r) from: BS_3o_DS1_DEN

================================================================================

          - hdr_check: checking restart file header for consistency -


          current calculation                           restart file
          -------------------                           ------------

  calculation expects a density             |  input file contains a density
. ABINIT  code version 9.2.2                |  ABINIT  code version 9.2.2
. date 20210308 bantot     3032 natom    2  |  date 20210308 bantot      300 natom    2
  nkpt     379 nsym 24 ngfft  40,  40,  40  |  nkpt      60 nsym 24 ngfft  40,  40,  40
  ntypat  2 ecut_eff  25.0000000            |  ntypat  2 ecut_eff  25.0000000
  usepaw  0                                 |  usepaw  0
  usewvl  0                                 |  usewvl  0
  rprimd:                                   |  rprimd:
     0.0000000   5.9968633   5.9968633      |     0.0000000   5.9968633   5.9968633
     5.9968633   0.0000000   5.9968633      |     5.9968633   0.0000000   5.9968633
     5.9968633   5.9968633   0.0000000      |     5.9968633   5.9968633   0.0000000
  symafm:                                   |  symafm:
    1  1  1  1  1  1  1  1  1  1  1  1      |    1  1  1  1  1  1  1  1  1  1  1  1
    1  1  1  1  1  1  1  1  1  1  1  1      |    1  1  1  1  1  1  1  1  1  1  1  1
  symrel:                                   |  symrel:
    1  0  0  0  1  0  0  0  1               |    1  0  0  0  1  0  0  0  1
    0 -1  1  0 -1  0  1 -1  0               |    0 -1  1  0 -1  0  1 -1  0
   -1  0  0 -1  0  1 -1  1  0               |   -1  0  0 -1  0  1 -1  1  0
    0  1 -1  1  0 -1  0  0 -1               |    0  1 -1  1  0 -1  0  0 -1
   -1  0  0 -1  1  0 -1  0  1               |   -1  0  0 -1  1  0 -1  0  1
    0 -1  1  1 -1  0  0 -1  0               |    0 -1  1  1 -1  0  0 -1  0
    1  0  0  0  0  1  0  1  0               |    1  0  0  0  0  1  0  1  0
    0  1 -1  0  0 -1  1  0 -1               |    0  1 -1  0  0 -1  1  0 -1
   -1  0  1 -1  1  0 -1  0  0               |   -1  0  1 -1  1  0 -1  0  0
    0 -1  0  1 -1  0  0 -1  1               |    0 -1  0  1 -1  0  0 -1  1
    1  0 -1  0  0 -1  0  1 -1               |    1  0 -1  0  0 -1  0  1 -1
    0  1  0  0  0  1  1  0  0               |    0  1  0  0  0  1  1  0  0
    1  0 -1  0  1 -1  0  0 -1               |    1  0 -1  0  1 -1  0  0 -1
    0 -1  0  0 -1  1  1 -1  0               |    0 -1  0  0 -1  1  1 -1  0
   -1  0  1 -1  0  0 -1  1  0               |   -1  0  1 -1  0  0 -1  1  0
    0  1  0  1  0  0  0  0  1               |    0  1  0  1  0  0  0  0  1
    0  0 -1  0  1 -1  1  0 -1               |    0  0 -1  0  1 -1  1  0 -1
    1 -1  0  0 -1  1  0 -1  0               |    1 -1  0  0 -1  1  0 -1  0
    0  0  1  1  0  0  0  1  0               |    0  0  1  1  0  0  0  1  0
   -1  1  0 -1  0  0 -1  0  1               |   -1  1  0 -1  0  0 -1  0  1
    0  0  1  0  1  0  1  0  0               |    0  0  1  0  1  0  1  0  0
    1 -1  0  0 -1  0  0 -1  1               |    1 -1  0  0 -1  0  0 -1  1
    0  0 -1  1  0 -1  0  1 -1               |    0  0 -1  1  0 -1  0  1 -1
   -1  1  0 -1  0  1 -1  0  0               |   -1  1  0 -1  0  1 -1  0  0
  typat:                                    |  typat:
    1  2                                    |    1  2
  so_psp  :                                 |  so_psp  :
    1  1                                    |    1  1

--- !COMMENT
src_file: m_hdr.F90
src_line: 4269
message: |
    input kptrlatt = 0 0 0 0 0 0 0 0 0  /= disk file kptrlatt = 8 -8 8 -8 8 8 -8 -8 8
...


--- !COMMENT
src_file: m_hdr.F90
src_line: 4272
message: |
    input kptopt = -3  /= disk file kptopt = 1
...

  tnons:                                    |  tnons:
     0.0000000   0.0000000   0.0000000      |     0.0000000   0.0000000   0.0000000
     0.0000000   0.0000000   0.0000000      |     0.0000000   0.0000000   0.0000000
     0.0000000   0.0000000   0.0000000      |     0.0000000   0.0000000   0.0000000
     0.0000000   0.0000000   0.0000000      |     0.0000000   0.0000000   0.0000000
     0.0000000   0.0000000   0.0000000      |     0.0000000   0.0000000   0.0000000
     0.0000000   0.0000000   0.0000000      |     0.0000000   0.0000000   0.0000000
     0.0000000   0.0000000   0.0000000      |     0.0000000   0.0000000   0.0000000
     0.0000000   0.0000000   0.0000000      |     0.0000000   0.0000000   0.0000000
     0.0000000   0.0000000   0.0000000      |     0.0000000   0.0000000   0.0000000
     0.0000000   0.0000000   0.0000000      |     0.0000000   0.0000000   0.0000000
     0.0000000   0.0000000   0.0000000      |     0.0000000   0.0000000   0.0000000
     0.0000000   0.0000000   0.0000000      |     0.0000000   0.0000000   0.0000000
     0.0000000   0.0000000   0.0000000      |     0.0000000   0.0000000   0.0000000
     0.0000000   0.0000000   0.0000000      |     0.0000000   0.0000000   0.0000000
     0.0000000   0.0000000   0.0000000      |     0.0000000   0.0000000   0.0000000
     0.0000000   0.0000000   0.0000000      |     0.0000000   0.0000000   0.0000000
     0.0000000   0.0000000   0.0000000      |     0.0000000   0.0000000   0.0000000
     0.0000000   0.0000000   0.0000000      |     0.0000000   0.0000000   0.0000000
     0.0000000   0.0000000   0.0000000      |     0.0000000   0.0000000   0.0000000
     0.0000000   0.0000000   0.0000000      |     0.0000000   0.0000000   0.0000000
     0.0000000   0.0000000   0.0000000      |     0.0000000   0.0000000   0.0000000
     0.0000000   0.0000000   0.0000000      |     0.0000000   0.0000000   0.0000000
     0.0000000   0.0000000   0.0000000      |     0.0000000   0.0000000   0.0000000
     0.0000000   0.0000000   0.0000000      |     0.0000000   0.0000000   0.0000000
   znucl:                                   |   znucl:
   49.00 51.00                              |       49.00 51.00
  pseudopotential atom type  1:             |  pseudopotential atom type  1:
  pspso   0 pspxc   1                       |  pspso   0 pspxc   1
  pspdat    10605 pspcod    3 zion   3.0    |  pspdat    10605 pspcod    3 zion   3.0
  pseudopotential atom type  2:             |  pseudopotential atom type  2:
  pspso   0 pspxc   1                       |  pspso   0 pspxc   1
  pspdat    10605 pspcod    3 zion   5.0    |  pspdat    10605 pspcod    3 zion   5.0
  xred:                                     |  xred:
     0.0000000   0.0000000   0.0000000      |     0.0000000   0.0000000   0.0000000
     0.2500000   0.2500000   0.2500000      |     0.2500000   0.2500000   0.2500000
 hdr_check:  Density/Potential file is OK for restart of calculation
================================================================================
 read_rhor completed. cpu:  0.00 [s] , wall:  0.00 [s] <<< TIME

================================================================================

 getcut: wavevector=  0.0000  0.0000  0.0000  ngfft=  40  40  40
         ecut(hartree)=     25.000   => boxcut(ratio)=   2.09549
 vtorho: nnsclo_now = 100, note that nnsclo, dbl_nnsclo, istep= 0 0 1
 k-point: [ 1 / 379 ], spin: 1
   Max resid = 2.24199E-01  (exclude nbdbuf bands). One NSCF iteration cpu-time:  0.10 [s] , wall-time:  0.21 [s]
   Max resid = 3.50003E-03  (exclude nbdbuf bands). One NSCF iteration cpu-time:  0.09 [s] , wall-time:  0.07 [s]
   Max resid = 9.70857E-07  (exclude nbdbuf bands). One NSCF iteration cpu-time:  0.09 [s] , wall-time:  0.20 [s]
   Printing residuals every mod(20) iterations...
   NSCF loop completed after 8 iterations

   fftdatar_write: About to write data to: BS_3o_DS2_DEN with iomode: IO_MODE_FORTRAN
 IO operation completed. cpu:  0.00 [s] , wall:  0.00 [s] <<< TIME
- Creating netcdf file WITHOUT MPI-IO support: BS_3o_DS2_GSR.nc
 Integrated electronic density in atomic spheres:
 ------------------------------------------------
 Atom  Sphere_radius  Integrated_density
    1        2.00000          0.67784251
    2        2.00000          1.55130221
================================================================================

 ----iterations are completed or convergence reached----

 Mean square residual over all n,k,spin=   42.079E-18; max=  99.908E-18
   0.5000  0.0000  0.0000    1  2.79179E-13 kpt; spin; max resid(k); each band:
   2.02E-17  1.83E-17  7.33E-17  5.11E-17  9.03E-17  7.19E-17  9.26E-17  2.79E-13
   0.4950  0.0000  0.0000    1  2.36542E-15 kpt; spin; max resid(k); each band:
   5.16E-17  1.04E-17  9.76E-17  5.72E-17  6.88E-17  4.86E-17  7.35E-17  2.37E-15
   0.4900  0.0000  0.0000    1  2.49355E-15 kpt; spin; max resid(k); each band:
   5.75E-17  1.01E-17  2.35E-17  5.90E-17  6.87E-17  4.24E-17  7.64E-17  2.49E-15
   0.4850  0.0000  0.0000    1  6.79062E-12 kpt; spin; max resid(k); each band:
   3.79E-17  3.60E-17  6.20E-17  7.46E-18  5.67E-17  2.42E-17  4.27E-17  6.79E-12
   0.4800  0.0000  0.0000    1  6.33408E-12 kpt; spin; max resid(k); each band:
   3.85E-17  3.89E-17  6.69E-17  8.71E-17  6.02E-17  1.38E-17  4.21E-17  6.33E-12
   0.4750  0.0000  0.0000    1  9.34526E-15 kpt; spin; max resid(k); each band:
   1.37E-17  2.76E-17  4.58E-17  2.59E-17  1.75E-17  5.08E-17  2.65E-17  9.35E-15
   0.4700  0.0000  0.0000    1  1.48319E-14 kpt; spin; max resid(k); each band:
   1.41E-17  2.77E-17  4.63E-17  2.55E-17  1.95E-17  4.58E-17  2.34E-17  1.48E-14
   0.4650  0.0000  0.0000    1  2.46959E-14 kpt; spin; max resid(k); each band:
   1.44E-17  2.88E-17  4.63E-17  2.47E-17  2.16E-17  5.53E-17  6.77E-17  2.47E-14
   0.4600  0.0000  0.0000    1  3.88879E-13 kpt; spin; max resid(k); each band:
   5.52E-17  7.07E-17  9.41E-17  2.04E-17  8.89E-18  4.48E-17  4.98E-17  3.89E-13
   0.4550  0.0000  0.0000    1  6.78320E-13 kpt; spin; max resid(k); each band:
   4.95E-17  7.01E-17  9.00E-17  2.04E-17  1.13E-17  5.88E-17  2.93E-17  6.78E-13
   0.4500  0.0000  0.0000    1  1.18797E-12 kpt; spin; max resid(k); each band:
   4.43E-17  7.07E-17  8.66E-17  2.04E-17  1.38E-17  6.69E-17  2.08E-17  1.19E-12
   0.4450  0.0000  0.0000    1  2.12402E-12 kpt; spin; max resid(k); each band:
   3.95E-17  7.27E-17  8.39E-17  2.05E-17  1.63E-17  5.30E-17  4.17E-17  2.12E-12
   0.4400  0.0000  0.0000    1  3.43923E-12 kpt; spin; max resid(k); each band:
   3.54E-17  7.69E-17  8.19E-17  2.06E-17  1.86E-17  3.46E-17  9.63E-17  3.44E-12
   0.4350  0.0000  0.0000    1  6.53735E-12 kpt; spin; max resid(k); each band:
   3.20E-17  8.43E-17  8.06E-17  2.08E-17  2.06E-17  3.61E-17  2.07E-17  6.54E-12
   0.4300  0.0000  0.0000    1  1.06450E-11 kpt; spin; max resid(k); each band:
   2.94E-17  9.62E-17  7.98E-17  2.10E-17  2.20E-17  7.91E-17  3.00E-17  1.06E-11
   0.4250  0.0000  0.0000    1  1.47447E-11 kpt; spin; max resid(k); each band:
   5.89E-17  3.11E-17  1.93E-17  6.34E-17  5.12E-17  2.64E-17  5.50E-17  1.47E-11
   0.4200  0.0000  0.0000    1  9.39577E-11 kpt; spin; max resid(k); each band:
   7.36E-17  2.57E-17  1.51E-17  4.14E-17  4.87E-17  3.28E-17  5.45E-17  9.40E-11
   0.4150  0.0000  0.0000    1  6.45371E-12 kpt; spin; max resid(k); each band:
   8.33E-18  1.33E-17  8.85E-18  2.72E-17  5.77E-17  5.24E-17  7.16E-17  6.45E-12
   0.4100  0.0000  0.0000    1  6.81390E-11 kpt; spin; max resid(k); each band:
   2.79E-17  3.36E-17  5.40E-17  1.93E-17  3.45E-17  8.84E-17  4.63E-17  6.81E-11
   0.4050  0.0000  0.0000    1  1.28524E-10 kpt; spin; max resid(k); each band:
   2.93E-17  3.06E-17  5.88E-17  2.10E-17  3.73E-17  9.77E-17  4.99E-17  1.29E-10
   0.4000  0.0000  0.0000    1  1.23353E-09 kpt; spin; max resid(k); each band:
   2.12E-17  7.79E-17  1.08E-17  9.47E-18  6.67E-17  5.88E-17  5.44E-17  1.23E-09
   0.3950  0.0000  0.0000    1  2.15883E-09 kpt; spin; max resid(k); each band:
   2.14E-17  8.05E-17  9.19E-18  8.17E-18  6.67E-17  8.30E-17  1.27E-17  2.16E-09
   0.3900  0.0000  0.0000    1  4.09376E-11 kpt; spin; max resid(k); each band:
   2.66E-17  1.69E-17  7.97E-17  2.19E-17  5.38E-17  8.17E-17  4.73E-17  4.09E-11
   0.3850  0.0000  0.0000    1  9.69385E-11 kpt; spin; max resid(k); each band:
   2.82E-17  1.87E-17  5.46E-17  2.06E-17  4.89E-17  9.70E-17  5.27E-17  9.69E-11
   0.3800  0.0000  0.0000    1  5.27645E-09 kpt; spin; max resid(k); each band:
   2.98E-17  1.40E-17  2.36E-17  6.31E-17  5.34E-17  6.95E-17  1.00E-15  5.28E-09
   0.3750  0.0000  0.0000    1  8.75888E-09 kpt; spin; max resid(k); each band:
   3.08E-17  1.64E-17  2.96E-17  5.57E-17  6.08E-17  8.29E-17  1.11E-15  8.76E-09
   0.3700  0.0000  0.0000    1  3.00599E-09 kpt; spin; max resid(k); each band:
   1.48E-17  2.56E-17  8.22E-17  7.94E-17  4.27E-17  3.79E-17  5.27E-17  3.01E-09
   0.3650  0.0000  0.0000    1  4.76823E-09 kpt; spin; max resid(k); each band:
   1.42E-17  2.84E-17  5.91E-17  6.16E-17  3.11E-17  3.74E-17  4.34E-17  4.77E-09
   0.3600  0.0000  0.0000    1  6.99055E-09 kpt; spin; max resid(k); each band:
   1.34E-17  3.14E-17  3.96E-17  4.60E-17  2.18E-17  2.53E-17  9.27E-17  6.99E-09
   0.3550  0.0000  0.0000    1  1.10418E-08 kpt; spin; max resid(k); each band:
   1.72E-17  1.59E-17  1.50E-17  5.61E-17  4.90E-17  7.98E-17  2.03E-17  1.10E-08
   0.3500  0.0000  0.0000    1  1.41520E-08 kpt; spin; max resid(k); each band:
   1.83E-17  1.37E-17  1.32E-17  3.98E-17  4.54E-17  5.41E-17  4.85E-17  1.42E-08
   0.3450  0.0000  0.0000    1  5.74700E-08 kpt; spin; max resid(k); each band:
   1.81E-17  6.05E-18  2.96E-17  2.54E-17  1.48E-17  8.41E-17  6.02E-17  5.75E-08
   0.3400  0.0000  0.0000    1  5.84605E-08 kpt; spin; max resid(k); each band:
   2.07E-17  6.71E-18  2.25E-17  1.94E-17  1.23E-17  6.22E-17  8.10E-17  5.85E-08
   0.3350  0.0000  0.0000    1  5.15178E-08 kpt; spin; max resid(k); each band:
   2.43E-17  9.32E-18  1.79E-17  1.50E-17  1.13E-17  3.53E-17  3.57E-17  5.15E-08
   0.3300  0.0000  0.0000    1  3.92714E-08 kpt; spin; max resid(k); each band:
   2.92E-17  1.82E-17  1.51E-17  1.22E-17  1.12E-17  6.21E-17  2.35E-17  3.93E-08
   0.3250  0.0000  0.0000    1  2.59197E-08 kpt; spin; max resid(k); each band:
   3.52E-17  3.25E-17  1.33E-17  8.90E-17  1.14E-17  6.63E-17  4.00E-17  2.59E-08
   0.3200  0.0000  0.0000    1  2.14187E-09 kpt; spin; max resid(k); each band:
   2.69E-17  8.51E-18  5.86E-17  1.30E-17  7.08E-17  8.67E-17  2.88E-17  2.14E-09
   0.3150  0.0000  0.0000    1  1.01595E-09 kpt; spin; max resid(k); each band:
   2.72E-17  9.39E-18  6.42E-17  1.37E-17  6.05E-17  8.82E-17  2.71E-17  1.02E-09
   0.3100  0.0000  0.0000    1  4.51651E-10 kpt; spin; max resid(k); each band:
   2.71E-17  1.01E-17  6.98E-17  1.46E-17  5.22E-17  8.61E-17  2.44E-17  4.52E-10
   0.3050  0.0000  0.0000    1  1.92109E-10 kpt; spin; max resid(k); each band:
   2.65E-17  1.04E-17  7.57E-17  1.58E-17  4.59E-17  8.07E-17  2.08E-17  1.92E-10
   0.3000  0.0000  0.0000    1  7.96659E-11 kpt; spin; max resid(k); each band:
   2.57E-17  1.04E-17  8.24E-17  1.72E-17  4.25E-17  7.25E-17  1.64E-17  7.97E-11
   0.2950  0.0000  0.0000    1  3.27564E-11 kpt; spin; max resid(k); each band:
   2.47E-17  1.01E-17  9.12E-17  1.87E-17  4.26E-17  6.27E-17  9.04E-17  3.28E-11
   0.2900  0.0000  0.0000    1  1.59439E-09 kpt; spin; max resid(k); each band:
   2.95E-17  1.89E-17  4.19E-17  1.73E-17  1.29E-17  3.74E-17  9.25E-17  1.59E-09
   0.2850  0.0000  0.0000    1  8.44366E-11 kpt; spin; max resid(k); each band:
   1.96E-17  2.11E-17  4.37E-17  3.93E-17  2.36E-17  7.18E-17  8.06E-17  8.44E-11
   0.2800  0.0000  0.0000    1  7.48871E-11 kpt; spin; max resid(k); each band:
   2.31E-17  1.07E-17  4.48E-17  2.06E-17  8.90E-18  8.15E-17  9.71E-17  7.49E-11
   0.2750  0.0000  0.0000    1  2.29304E-11 kpt; spin; max resid(k); each band:
   2.76E-17  1.11E-17  3.92E-17  2.06E-17  8.50E-18  3.96E-17  5.69E-17  2.29E-11
   0.2700  0.0000  0.0000    1  7.64175E-12 kpt; spin; max resid(k); each band:
   3.75E-17  1.13E-17  3.66E-17  2.19E-17  8.15E-18  2.22E-17  2.77E-17  7.64E-12
   0.2650  0.0000  0.0000    1  2.75020E-12 kpt; spin; max resid(k); each band:
   4.51E-17  1.14E-17  3.61E-17  2.45E-17  7.87E-18  6.16E-17  7.09E-17  2.75E-12
   0.2600  0.0000  0.0000    1  1.55300E-12 kpt; spin; max resid(k); each band:
   1.15E-17  3.40E-17  1.69E-17  4.29E-17  1.23E-17  2.76E-17  8.67E-17  1.55E-12
   0.2550  0.0000  0.0000    1  4.62103E-11 kpt; spin; max resid(k); each band:
   1.20E-17  3.15E-17  9.28E-17  3.16E-17  8.69E-17  9.46E-17  5.93E-16  4.62E-11
 outwf : prtvol=0 or 1, do not print more k-points.


   outwf: writing wavefunctions to: BS_3o_DS2_WFK with iomode: IO_MODE_FORTRAN_MASTER
 WFK output completed. cpu:  0.21 [s] , wall:  0.22 [s] <<< TIME
 prteigrs : about to open file BS_3o_DS2_EIG
 Eigenvalues (   eV  ) for nkpt= 379  k points:
 kpt#   1, nband=  8, wtk=  1.00000, kpt=  0.5000  0.0000  0.0000 (reduced coord)
  -8.83689   -5.03538   -0.21652   -0.21652    1.54802    4.76796    4.76796    7.13740
 kpt#   2, nband=  8, wtk=  1.00000, kpt=  0.4950  0.0000  0.0000 (reduced coord)
  -8.83747   -5.03426   -0.21634   -0.21634    1.54819    4.76804    4.76804    7.13761
 kpt#   3, nband=  8, wtk=  1.00000, kpt=  0.4900  0.0000  0.0000 (reduced coord)
  -8.83924   -5.03090   -0.21579   -0.21579    1.54869    4.76829    4.76829    7.13824
 kpt#   4, nband=  8, wtk=  1.00000, kpt=  0.4850  0.0000  0.0000 (reduced coord)
  -8.84217   -5.02531   -0.21488   -0.21488    1.54953    4.76870    4.76870    7.13927
 kpt#   5, nband=  8, wtk=  1.00000, kpt=  0.4800  0.0000  0.0000 (reduced coord)
  -8.84626   -5.01749   -0.21360   -0.21360    1.55071    4.76928    4.76928    7.14071
 kpt#   6, nband=  8, wtk=  1.00000, kpt=  0.4750  0.0000  0.0000 (reduced coord)
  -8.85150   -5.00748   -0.21196   -0.21196    1.55223    4.77001    4.77001    7.14255
 kpt#   7, nband=  8, wtk=  1.00000, kpt=  0.4700  0.0000  0.0000 (reduced coord)
  -8.85785   -4.99528   -0.20995   -0.20995    1.55408    4.77090    4.77090    7.14477
 kpt#   8, nband=  8, wtk=  1.00000, kpt=  0.4650  0.0000  0.0000 (reduced coord)
  -8.86530   -4.98092   -0.20758   -0.20758    1.55626    4.77194    4.77194    7.14736
 kpt#   9, nband=  8, wtk=  1.00000, kpt=  0.4600  0.0000  0.0000 (reduced coord)
  -8.87381   -4.96443   -0.20485   -0.20485    1.55879    4.77312    4.77312    7.15030
 kpt#  10, nband=  8, wtk=  1.00000, kpt=  0.4550  0.0000  0.0000 (reduced coord)
  -8.88337   -4.94585   -0.20176   -0.20176    1.56164    4.77443    4.77443    7.15356
 kpt#  11, nband=  8, wtk=  1.00000, kpt=  0.4500  0.0000  0.0000 (reduced coord)
  -8.89393   -4.92520   -0.19830   -0.19830    1.56483    4.77586    4.77586    7.15711
 kpt#  12, nband=  8, wtk=  1.00000, kpt=  0.4450  0.0000  0.0000 (reduced coord)
  -8.90545   -4.90253   -0.19448   -0.19448    1.56835    4.77741    4.77741    7.16093
 kpt#  13, nband=  8, wtk=  1.00000, kpt=  0.4400  0.0000  0.0000 (reduced coord)
  -8.91790   -4.87788   -0.19031   -0.19031    1.57220    4.77907    4.77907    7.16496
 kpt#  14, nband=  8, wtk=  1.00000, kpt=  0.4350  0.0000  0.0000 (reduced coord)
  -8.93123   -4.85128   -0.18578   -0.18578    1.57638    4.78081    4.78081    7.16917
 kpt#  15, nband=  8, wtk=  1.00000, kpt=  0.4300  0.0000  0.0000 (reduced coord)
  -8.94541   -4.82279   -0.18089   -0.18089    1.58089    4.78263    4.78263    7.17348
 kpt#  16, nband=  8, wtk=  1.00000, kpt=  0.4250  0.0000  0.0000 (reduced coord)
  -8.96039   -4.79245   -0.17564   -0.17564    1.58573    4.78451    4.78451    7.17783
 kpt#  17, nband=  8, wtk=  1.00000, kpt=  0.4200  0.0000  0.0000 (reduced coord)
[...]
 kpt# 375, nband=  8, wtk=  1.00000, kpt=  0.9755  0.9877  0.9877 (reduced coord)
 -10.22399    0.64777    0.82791    0.84102    1.24708    3.91825    3.92209    3.93871
 kpt# 376, nband=  8, wtk=  1.00000, kpt=  0.9816  0.9908  0.9908 (reduced coord)
 -10.22560    0.71384    0.83465    0.84204    1.18728    3.91815    3.92033    3.92968
 kpt# 377, nband=  8, wtk=  1.00000, kpt=  0.9877  0.9939  0.9939 (reduced coord)
 -10.22675    0.77442    0.83948    0.84276    1.13117    3.91810    3.91908    3.92323
 kpt# 378, nband=  8, wtk=  1.00000, kpt=  0.9939  0.9969  0.9969 (reduced coord)
 -10.22744    0.82283    0.84237    0.84320    1.08544    3.91808    3.91832    3.91936
 kpt# 379, nband=  8, wtk=  1.00000, kpt=  1.0000  1.0000  1.0000 (reduced coord)
 -10.22767    0.84334    0.84334    0.84334    1.06582    3.91807    3.91807    3.91807
 Total charge density [el/Bohr^3]
      Maximum=    6.7703E-02  at reduced coord.    0.1750    0.1750    0.5000
 Next maximum=    6.7703E-02  at reduced coord.    0.1500    0.1750    0.5000
      Minimum=    1.3043E-06  at reduced coord.    0.2500    0.2500    0.2500
 Next minimum=    1.1527E-05  at reduced coord.    0.0000    0.0000    0.0000
   Integrated=    8.0000E+00

== END DATASET(S) ==============================================================
================================================================================
  
 -outvars: echo values of variables after computation  --------
 
 These variables are accessible in NetCDF format (BS_3o_OUT.nc)

            acell      1.1993726641E+01  1.1993726641E+01  1.1993726641E+01 Bohr
              amu      1.14820000E+02  1.21753000E+02
             ecut      2.50000000E+01 Hartree
           enunit1          0
           enunit2          1
           etotal1    -7.6836612690E+00
            fcart1    -0.0000000000E+00 -0.0000000000E+00 -0.0000000000E+00
                      -0.0000000000E+00 -0.0000000000E+00 -0.0000000000E+00
-          fftalg         312
           getden1          0
           getden2         -1
             iscf1          7
             iscf2         -2
           istwfk2       3    0    0    0    0    0    0    0    0    0
                         0    0    0    0    0    0    0    0    0    0
                         0    0    0    0    0    0    0    0    0    0
                         0    0    0    0    0    0    0    0    0    0
                         0    0    0    0    0    0    0    0    0    0
                       outvar_i_n : Printing only first  50 k-points.
           jdtset        1    2
              kpt1    -6.25000000E-02 -1.25000000E-01  0.00000000E+00
                      -6.25000000E-02 -2.50000000E-01  0.00000000E+00
                      -1.25000000E-01 -1.87500000E-01  0.00000000E+00
                      -6.25000000E-02 -1.87500000E-01  6.25000000E-02
                      -6.25000000E-02 -3.75000000E-01  0.00000000E+00
                      -1.25000000E-01 -3.12500000E-01  0.00000000E+00
                      -6.25000000E-02 -3.12500000E-01  6.25000000E-02
                      -1.87500000E-01 -2.50000000E-01  0.00000000E+00
                      -1.25000000E-01 -2.50000000E-01  6.25000000E-02
                      -6.25000000E-02 -2.50000000E-01  1.25000000E-01
                      -6.25000000E-02  5.00000000E-01  0.00000000E+00
                      -1.25000000E-01 -4.37500000E-01  0.00000000E+00
                      -6.25000000E-02 -4.37500000E-01  6.25000000E-02
                      -1.87500000E-01 -3.75000000E-01  0.00000000E+00
                      -1.25000000E-01 -3.75000000E-01  6.25000000E-02
                      -6.25000000E-02 -3.75000000E-01  1.25000000E-01
                      -2.50000000E-01 -3.12500000E-01  0.00000000E+00
                      -1.87500000E-01 -3.12500000E-01  6.25000000E-02
                      -1.25000000E-01 -3.12500000E-01  1.25000000E-01
                      -6.25000000E-02 -3.12500000E-01  1.87500000E-01
                      -6.25000000E-02  3.75000000E-01  0.00000000E+00
                      -1.25000000E-01  4.37500000E-01  0.00000000E+00
                      -1.87500000E-01  5.00000000E-01  0.00000000E+00
                      -1.25000000E-01  5.00000000E-01  6.25000000E-02
                      -2.50000000E-01 -4.37500000E-01  0.00000000E+00
                      -1.87500000E-01 -4.37500000E-01  6.25000000E-02
                      -1.25000000E-01 -4.37500000E-01  1.25000000E-01
                      -6.25000000E-02 -4.37500000E-01  1.87500000E-01
                      -3.12500000E-01 -3.75000000E-01  0.00000000E+00
                      -2.50000000E-01 -3.75000000E-01  6.25000000E-02
                      -1.87500000E-01 -3.75000000E-01  1.25000000E-01
                      -1.25000000E-01 -3.75000000E-01  1.87500000E-01
                      -6.25000000E-02 -3.75000000E-01  2.50000000E-01
                      -6.25000000E-02  2.50000000E-01  0.00000000E+00
                      -1.25000000E-01  3.12500000E-01  0.00000000E+00
                      -1.87500000E-01  3.75000000E-01  0.00000000E+00
                      -2.50000000E-01  4.37500000E-01  0.00000000E+00
                      -3.12500000E-01  5.00000000E-01  0.00000000E+00
                      -2.50000000E-01  5.00000000E-01  6.25000000E-02
                      -1.87500000E-01  5.00000000E-01  1.25000000E-01
                      -3.75000000E-01 -4.37500000E-01  0.00000000E+00
                      -3.12500000E-01 -4.37500000E-01  6.25000000E-02
                      -2.50000000E-01 -4.37500000E-01  1.25000000E-01
                      -1.87500000E-01 -4.37500000E-01  1.87500000E-01
                      -1.25000000E-01 -4.37500000E-01  2.50000000E-01
                      -6.25000000E-02 -4.37500000E-01  3.12500000E-01
                      -6.25000000E-02  1.25000000E-01  0.00000000E+00
                      -1.25000000E-01  1.87500000E-01  0.00000000E+00
                      -1.87500000E-01  2.50000000E-01  0.00000000E+00
                      -2.50000000E-01  3.12500000E-01  0.00000000E+00
              kpt2     5.00000000E-01  0.00000000E+00  0.00000000E+00
                       4.95000000E-01  0.00000000E+00  0.00000000E+00
                       4.90000000E-01  0.00000000E+00  0.00000000E+00
                       4.85000000E-01  0.00000000E+00  0.00000000E+00
                       4.80000000E-01  0.00000000E+00  0.00000000E+00
                       4.75000000E-01  0.00000000E+00  0.00000000E+00
                       4.70000000E-01  0.00000000E+00  0.00000000E+00
                       4.65000000E-01  0.00000000E+00  0.00000000E+00
                       4.60000000E-01  0.00000000E+00  0.00000000E+00
                       4.55000000E-01  0.00000000E+00  0.00000000E+00
                       4.50000000E-01  0.00000000E+00  0.00000000E+00
                       4.45000000E-01  0.00000000E+00  0.00000000E+00
                       4.40000000E-01  0.00000000E+00  0.00000000E+00
                       4.35000000E-01  0.00000000E+00  0.00000000E+00
                       4.30000000E-01  0.00000000E+00  0.00000000E+00
                       4.25000000E-01  0.00000000E+00  0.00000000E+00
                       4.20000000E-01  0.00000000E+00  0.00000000E+00
                       4.15000000E-01  0.00000000E+00  0.00000000E+00
                       4.10000000E-01  0.00000000E+00  0.00000000E+00
                       4.05000000E-01  0.00000000E+00  0.00000000E+00
                       4.00000000E-01  0.00000000E+00  0.00000000E+00
                       3.95000000E-01  0.00000000E+00  0.00000000E+00
                       3.90000000E-01  0.00000000E+00  0.00000000E+00
                       3.85000000E-01  0.00000000E+00  0.00000000E+00
                       3.80000000E-01  0.00000000E+00  0.00000000E+00
                       3.75000000E-01  0.00000000E+00  0.00000000E+00
                       3.70000000E-01  0.00000000E+00  0.00000000E+00
                       3.65000000E-01  0.00000000E+00  0.00000000E+00
                       3.60000000E-01  0.00000000E+00  0.00000000E+00
                       3.55000000E-01  0.00000000E+00  0.00000000E+00
                       3.50000000E-01  0.00000000E+00  0.00000000E+00
                       3.45000000E-01  0.00000000E+00  0.00000000E+00
                       3.40000000E-01  0.00000000E+00  0.00000000E+00
                       3.35000000E-01  0.00000000E+00  0.00000000E+00
                       3.30000000E-01  0.00000000E+00  0.00000000E+00
                       3.25000000E-01  0.00000000E+00  0.00000000E+00
                       3.20000000E-01  0.00000000E+00  0.00000000E+00
                       3.15000000E-01  0.00000000E+00  0.00000000E+00
                       3.10000000E-01  0.00000000E+00  0.00000000E+00
                       3.05000000E-01  0.00000000E+00  0.00000000E+00
                       3.00000000E-01  0.00000000E+00  0.00000000E+00
                       2.95000000E-01  0.00000000E+00  0.00000000E+00
                       2.90000000E-01  0.00000000E+00  0.00000000E+00
                       2.85000000E-01  0.00000000E+00  0.00000000E+00
                       2.80000000E-01  0.00000000E+00  0.00000000E+00
                       2.75000000E-01  0.00000000E+00  0.00000000E+00
                       2.70000000E-01  0.00000000E+00  0.00000000E+00
                       2.65000000E-01  0.00000000E+00  0.00000000E+00
                       2.60000000E-01  0.00000000E+00  0.00000000E+00
                       2.55000000E-01  0.00000000E+00  0.00000000E+00
                       outvar_i_n : Printing only first  50 k-points.
           kptopt1          1
           kptopt2         -3
         kptrlatt        8   -8    8     -8    8    8     -8   -8    8
          kptrlen1     9.59498131E+01
          kptrlen2     3.00000000E+01
P           mkmem1          8
P           mkmem2         48
            natom           2
            nband1          5
            nband2          8
           nbdbuf1          0
           nbdbuf2          2
           ndtset           2
           ndivsm1          0
           ndivsm2        100
            ngfft          40      40      40
             nkpt1         60
             nkpt2        379
            nstep         100
             nsym          24
           ntypat           2
              occ      2.000000  2.000000  2.000000  2.000000  0.000000
            rprim      0.0000000000E+00  5.0000000000E-01  5.0000000000E-01
                       5.0000000000E-01  0.0000000000E+00  5.0000000000E-01
                       5.0000000000E-01  5.0000000000E-01  0.0000000000E+00
           shiftk      5.00000000E-01  5.00000000E-01  5.00000000E-01
          spgroup         216
           strten1     1.4052301563E-07  1.4052301563E-07  1.4052301563E-07
                       0.0000000000E+00  0.0000000000E+00  0.0000000000E+00
           symrel      1  0  0   0  1  0   0  0  1       0 -1  1   0 -1  0   1 -1  0
                      -1  0  0  -1  0  1  -1  1  0       0  1 -1   1  0 -1   0  0 -1
                      -1  0  0  -1  1  0  -1  0  1       0 -1  1   1 -1  0   0 -1  0
                       1  0  0   0  0  1   0  1  0       0  1 -1   0  0 -1   1  0 -1
                      -1  0  1  -1  1  0  -1  0  0       0 -1  0   1 -1  0   0 -1  1
                       1  0 -1   0  0 -1   0  1 -1       0  1  0   0  0  1   1  0  0
                       1  0 -1   0  1 -1   0  0 -1       0 -1  0   0 -1  1   1 -1  0
                      -1  0  1  -1  0  0  -1  1  0       0  1  0   1  0  0   0  0  1
                       0  0 -1   0  1 -1   1  0 -1       1 -1  0   0 -1  1   0 -1  0
                       0  0  1   1  0  0   0  1  0      -1  1  0  -1  0  0  -1  0  1
                       0  0  1   0  1  0   1  0  0       1 -1  0   0 -1  0   0 -1  1
                       0  0 -1   1  0 -1   0  1 -1      -1  1  0  -1  0  1  -1  0  0
           tolvrs1     1.00000000E-12
           tolvrs2     0.00000000E+00
           tolwfr1     0.00000000E+00
           tolwfr2     1.00000000E-16
            typat      1  2
              wtk1       0.01172    0.01172    0.01172    0.02344    0.01172    0.01172
                         0.02344    0.01172    0.02344    0.02344    0.01172    0.01172
                         0.02344    0.01172    0.02344    0.02344    0.01172    0.02344
                         0.02344    0.02344    0.01172    0.01172    0.01172    0.02344
                         0.01172    0.02344    0.02344    0.02344    0.01172    0.02344
                         0.02344    0.02344    0.02344    0.01172    0.01172    0.01172
                         0.01172    0.01172    0.02344    0.02344    0.01172    0.02344
                         0.02344    0.02344    0.02344    0.02344    0.01172    0.01172
                         0.01172    0.01172
              wtk2       1.00000    1.00000    1.00000    1.00000    1.00000    1.00000
                         1.00000    1.00000    1.00000    1.00000    1.00000    1.00000
                         1.00000    1.00000    1.00000    1.00000    1.00000    1.00000
                         1.00000    1.00000    1.00000    1.00000    1.00000    1.00000
                         1.00000    1.00000    1.00000    1.00000    1.00000    1.00000
                         1.00000    1.00000    1.00000    1.00000    1.00000    1.00000
                         1.00000    1.00000    1.00000    1.00000    1.00000    1.00000
                         1.00000    1.00000    1.00000    1.00000    1.00000    1.00000
                         1.00000    1.00000
                       outvars : Printing only first  50 k-points.
           xangst      0.0000000000E+00  0.0000000000E+00  0.0000000000E+00
                       1.5867016961E+00  1.5867016961E+00  1.5867016961E+00
            xcart      0.0000000000E+00  0.0000000000E+00  0.0000000000E+00
                       2.9984316602E+00  2.9984316603E+00  2.9984316602E+00
             xred      0.0000000000E+00  0.0000000000E+00  0.0000000000E+00
                       2.5000000000E-01  2.5000000000E-01  2.5000000000E-01
            znucl       49.00000   51.00000

================================================================================
  

================================================================================

 Suggested references for the acknowledgment of ABINIT usage.

 The users of ABINIT have little formal obligations with respect to the ABINIT group
 (those specified in the GNU General Public License, http://www.gnu.org/copyleft/gpl.txt).
 However, it is common practice in the scientific literature,
 to acknowledge the efforts of people that have made the research possible.
 In this spirit, please find below suggested citations of work written by ABINIT developers,
 corresponding to implementations inside of ABINIT that you have used in the present run.
 Note also that it will be of great value to readers of publications presenting these results,
 to read papers enabling them to understand the theoretical formalism and details
 of the ABINIT implementation.
 For information on why they are suggested, see also https://docs.abinit.org/theory/acknowledgments.
-
- [1] The Abinit project: Impact, environment and recent developments.
- Computer Phys. Comm. 248, 107042 (2020).
- X.Gonze, B. Amadon, G. Antonius, F.Arnardi, L.Baguet, J.-M.Beuken,
- J.Bieder, F.Bottin, J.Bouchet, E.Bousquet, N.Brouwer, F.Bruneval,
- G.Brunin, T.Cavignac, J.-B. Charraud, Wei Chen, M.Cote, S.Cottenier,
- J.Denier, G.Geneste, Ph.Ghosez, M.Giantomassi, Y.Gillet, O.Gingras,
- D.R.Hamann, G.Hautier, Xu He, N.Helbig, N.Holzwarth, Y.Jia, F.Jollet,
- W.Lafargue-Dit-Hauret, K.Lejaeghere, M.A.L.Marques, A.Martin, C.Martins,
- H.P.C. Miranda, F.Naccarato, K. Persson, G.Petretto, V.Planes, Y.Pouillon,
- S.Prokhorenko, F.Ricci, G.-M.Rignanese, A.H.Romero, M.M.Schmitt, M.Torrent,
- M.J.van Setten, B.Van Troeye, M.J.Verstraete, G.Zerah and J.W.Zwanzig
- Comment: the fifth generic paper describing the ABINIT project.
- Note that a version of this paper, that is not formatted for Computer Phys. Comm. 
- is available at https://www.abinit.org/sites/default/files/ABINIT20.pdf .
- The licence allows the authors to put it on the Web.
- DOI and bibtex: see https://docs.abinit.org/theory/bibliography/#gonze2020
-
- [2] ABINIT: Overview, and focus on selected capabilities
- J. Chem. Phys. 152, 124102 (2020).
- A. Romero, D.C. Allan, B. Amadon, G. Antonius, T. Applencourt, L.Baguet,
- J.Bieder, F.Bottin, J.Bouchet, E.Bousquet, F.Bruneval,
- G.Brunin, D.Caliste, M.Cote,
- J.Denier, C. Dreyer, Ph.Ghosez, M.Giantomassi, Y.Gillet, O.Gingras,
- D.R.Hamann, G.Hautier, F.Jollet, G. Jomard,
- A.Martin, 
- H.P.C. Miranda, F.Naccarato, G.Petretto, N.A. Pike, V.Planes,
- S.Prokhorenko, T. Rangel, F.Ricci, G.-M.Rignanese, M.Royo, M.Stengel, M.Torrent,
- M.J.van Setten, B.Van Troeye, M.J.Verstraete, J.Wiktor, J.W.Zwanziger, and X.Gonze.
- Comment: a global overview of ABINIT, with focus on selected capabilities .
- Note that a version of this paper, that is not formatted for J. Chem. Phys 
- is available at https://www.abinit.org/sites/default/files/ABINIT20_JPC.pdf .
- The licence allows the authors to put it on the Web.
- DOI and bibtex: see https://docs.abinit.org/theory/bibliography/#romero2020
-
- [3] Recent developments in the ABINIT software package.
- Computer Phys. Comm. 205, 106 (2016).
- X.Gonze, F.Jollet, F.Abreu Araujo, D.Adams, B.Amadon, T.Applencourt,
- C.Audouze, J.-M.Beuken, J.Bieder, A.Bokhanchuk, E.Bousquet, F.Bruneval
- D.Caliste, M.Cote, F.Dahm, F.Da Pieve, M.Delaveau, M.Di Gennaro,
- B.Dorado, C.Espejo, G.Geneste, L.Genovese, A.Gerossier, M.Giantomassi,
- Y.Gillet, D.R.Hamann, L.He, G.Jomard, J.Laflamme Janssen, S.Le Roux,
- A.Levitt, A.Lherbier, F.Liu, I.Lukacevic, A.Martin, C.Martins,
- M.J.T.Oliveira, S.Ponce, Y.Pouillon, T.Rangel, G.-M.Rignanese,
- A.H.Romero, B.Rousseau, O.Rubel, A.A.Shukri, M.Stankovski, M.Torrent,
- M.J.Van Setten, B.Van Troeye, M.J.Verstraete, D.Waroquier, J.Wiktor,
- B.Xu, A.Zhou, J.W.Zwanziger.
- Comment: the fourth generic paper describing the ABINIT project.
- Note that a version of this paper, that is not formatted for Computer Phys. Comm. 
- is available at https://www.abinit.org/sites/default/files/ABINIT16.pdf .
- The licence allows the authors to put it on the Web.
- DOI and bibtex: see https://docs.abinit.org/theory/bibliography/#gonze2016
-
- And optionally:
-
- [4] ABINIT: First-principles approach of materials and nanosystem properties.
- Computer Phys. Comm. 180, 2582-2615 (2009).
- X. Gonze, B. Amadon, P.-M. Anglade, J.-M. Beuken, F. Bottin, P. Boulanger, F. Bruneval,
- D. Caliste, R. Caracas, M. Cote, T. Deutsch, L. Genovese, Ph. Ghosez, M. Giantomassi
- S. Goedecker, D.R. Hamann, P. Hermet, F. Jollet, G. Jomard, S. Leroux, M. Mancini, S. Mazevet,
- M.J.T. Oliveira, G. Onida, Y. Pouillon, T. Rangel, G.-M. Rignanese, D. Sangalli, R. Shaltaf,
- M. Torrent, M.J. Verstraete, G. Zerah, J.W. Zwanziger
- Comment: the third generic paper describing the ABINIT project.
- Note that a version of this paper, that is not formatted for Computer Phys. Comm. 
- is available at https://www.abinit.org/sites/default/files/ABINIT_CPC_v10.pdf .
- The licence allows the authors to put it on the Web.
- DOI and bibtex: see https://docs.abinit.org/theory/bibliography/#gonze2009
 Proc.   0 individual time (sec): cpu=         52.9  wall=         95.6

 Calculation completed.
.Delivered   0 WARNINGs and   2 COMMENTs to log file.

--- !FinalSummary
program: abinit
version: 9.2.2
start_datetime: Mon Mar 08 15:23:20 2021
end_datetime: Mon Mar 08 15:24:56 2021
overall_cpu_time:         421.0
overall_wall_time:         764.9
exit_requested_by_user: no 
timelimit: 0
pseudos: 
    In  : cda4741fa05734ba14a93c94a82a7069
    Sb  : 6af91e0e6923aef7e2927af1d4848bdd
usepaw: 0
mpi_procs: 8
omp_threads: 8
num_warnings: 0
num_comments: 2
...
