
.Version 9.2.2 of ABINIT 
.(MPI version, prepared for a arm_darwin20.2.0_gnu10.2 computer) 

.Copyright (C) 1998-2020 ABINIT group . 
 ABINIT comes with ABSOLUTELY NO WARRANTY.
 It is free software, and you are welcome to redistribute it
 under certain conditions (GNU General Public License,
 see ~abinit/COPYING or http://www.gnu.org/copyleft/gpl.txt).

 ABINIT is a project of the Universite Catholique de Louvain,
 Corning Inc. and other collaborators, see ~abinit/doc/developers/contributors.txt .
 Please read https://docs.abinit.org/theory/acknowledgments for suggested
 acknowledgments of the ABINIT effort.
 For more information, see https://www.abinit.org .

.Starting date : Mon  8 Mar 2021.
- ( at 21h27 )
  
- input  file    -> NLO_3.abi
- output file    -> NLO_3.abo
- root for input  files -> NLO_3i
- root for output files -> NLO_3o


 DATASET    1 : space group F-4 3 m (#216); Bravais cF (face-center cubic)
================================================================================
 Values of the parameters that define the memory need for DATASET  1.
     intxc =       0    ionmov =       0      iscf =       7    lmnmax =       6
     lnmax =       6     mgfft =      45  mpssoang =       3    mqgrid =    3001
     natom =       2  nloc_mem =       1    nspden =       1   nspinor =       1
    nsppol =       1      nsym =      24    n1xccc =       0    ntypat =       2
    occopt =       1   xclevel =       1
-    mband =           5        mffmem =           1         mkmem =          15
       mpw =        3000          nfft =       91125          nkpt =          60
================================================================================
P This job should need less than                      30.234 Mbytes of memory.
  Rough estimation (10% accuracy) of disk space for files :
_ WF disk file :     13.735 Mbytes ; DEN or POT disk file :      0.697 Mbytes.
================================================================================


 DATASET    2 : space group F-4 3 m (#216); Bravais cF (face-center cubic)
================================================================================
 Values of the parameters that define the memory need for DATASET  2.
     intxc =       0    ionmov =       0      iscf =      -2    lmnmax =       6
     lnmax =       6     mgfft =      45  mpssoang =       3    mqgrid =    3001
     natom =       2  nloc_mem =       1    nspden =       1   nspinor =       1
    nsppol =       1      nsym =      24    n1xccc =       0    ntypat =       2
    occopt =       1   xclevel =       1
-    mband =           4        mffmem =           1         mkmem =         256
       mpw =        3000          nfft =       91125          nkpt =        1024
================================================================================
P This job should need less than                      71.405 Mbytes of memory.
  Rough estimation (10% accuracy) of disk space for files :
_ WF disk file :    187.502 Mbytes ; DEN or POT disk file :      0.697 Mbytes.
================================================================================


 DATASET    3 : space group F-4 3 m (#216); Bravais cF (face-center cubic)
================================================================================
 Values of the parameters that define the memory need for DATASET  3 (RF).
     intxc =       0      iscf =       7    lmnmax =       6     lnmax =       6
     mgfft =      45  mpssoang =       3    mqgrid =    3001     natom =       2
  nloc_mem =       1    nspden =       1   nspinor =       1    nsppol =       1
      nsym =      24    n1xccc =       0    ntypat =       2    occopt =       1
   xclevel =       1
-    mband =           4        mffmem =           1         mkmem =         256
-   mkqmem =         256        mk1mem =         256           mpw =        3000
      nfft =       91125          nkpt =        1024
================================================================================
P This job should need less than                     179.309 Mbytes of memory.
  Rough estimation (10% accuracy) of disk space for files :
_ WF disk file :    187.502 Mbytes ; DEN or POT disk file :      0.697 Mbytes.
================================================================================


 DATASET    4 : space group F-4 3 m (#216); Bravais cF (face-center cubic)
================================================================================
 Values of the parameters that define the memory need for DATASET  4 (RF).
     intxc =       0      iscf =       7    lmnmax =       6     lnmax =       6
     mgfft =      45  mpssoang =       3    mqgrid =    3001     natom =       2
  nloc_mem =       1    nspden =       1   nspinor =       1    nsppol =       1
      nsym =      24    n1xccc =       0    ntypat =       2    occopt =       1
   xclevel =       1
-    mband =           4        mffmem =           1         mkmem =         256
-   mkqmem =         256        mk1mem =         256           mpw =        3000
      nfft =       91125          nkpt =        1024
================================================================================
P This job should need less than                     179.309 Mbytes of memory.
  Rough estimation (10% accuracy) of disk space for files :
_ WF disk file :    187.502 Mbytes ; DEN or POT disk file :      0.697 Mbytes.
================================================================================

--------------------------------------------------------------------------------
------------- Echo of variables that govern the present computation ------------
--------------------------------------------------------------------------------
-
- outvars: echo of selected default values                                      
-   iomode0 =  0 , fftalg0 =312 , wfoptalg0 =  0
-
- outvars: echo of global parameters not present in the input file              
-  max_nthreads =    8
-
 -outvars: echo values of preprocessed input variables --------
            acell      1.1993726641E+01  1.1993726641E+01  1.1993726641E+01 Bohr
              amu      1.14820000E+02  1.21753000E+02
          dilatmx      1.05000000E+00
             ecut      2.50000000E+01 Hartree
           ecutsm      5.00000000E-01 Hartree
-          fftalg         312
           getddk1          0
           getddk2          0
           getddk3          0
           getddk4          3
           getden1          0
           getden2          1
           getden3          0
           getden4          0
           getwfk1          0
           getwfk2          1
           getwfk3          2
           getwfk4          2
             iscf1          7
             iscf2         -2
             iscf3          7
             iscf4          7
              ixc           3
           jdtset        1    2    3    4
              kpt1    -6.25000000E-02 -1.25000000E-01  0.00000000E+00
                      -6.25000000E-02 -2.50000000E-01  0.00000000E+00
                      -1.25000000E-01 -1.87500000E-01  0.00000000E+00
                      -6.25000000E-02 -1.87500000E-01  6.25000000E-02
                      -6.25000000E-02 -3.75000000E-01  0.00000000E+00
                      -1.25000000E-01 -3.12500000E-01  0.00000000E+00
                      -6.25000000E-02 -3.12500000E-01  6.25000000E-02
                      -1.87500000E-01 -2.50000000E-01  0.00000000E+00
                      -1.25000000E-01 -2.50000000E-01  6.25000000E-02
                      -6.25000000E-02 -2.50000000E-01  1.25000000E-01
                      -6.25000000E-02  5.00000000E-01  0.00000000E+00
                      -1.25000000E-01 -4.37500000E-01  0.00000000E+00
                      -6.25000000E-02 -4.37500000E-01  6.25000000E-02
                      -1.87500000E-01 -3.75000000E-01  0.00000000E+00
                      -1.25000000E-01 -3.75000000E-01  6.25000000E-02
                      -6.25000000E-02 -3.75000000E-01  1.25000000E-01
                      -2.50000000E-01 -3.12500000E-01  0.00000000E+00
                      -1.87500000E-01 -3.12500000E-01  6.25000000E-02
                      -1.25000000E-01 -3.12500000E-01  1.25000000E-01
                      -6.25000000E-02 -3.12500000E-01  1.87500000E-01
                      -6.25000000E-02  3.75000000E-01  0.00000000E+00
                      -1.25000000E-01  4.37500000E-01  0.00000000E+00
                      -1.87500000E-01  5.00000000E-01  0.00000000E+00
                      -1.25000000E-01  5.00000000E-01  6.25000000E-02
                      -2.50000000E-01 -4.37500000E-01  0.00000000E+00
                      -1.87500000E-01 -4.37500000E-01  6.25000000E-02
                      -1.25000000E-01 -4.37500000E-01  1.25000000E-01
                      -6.25000000E-02 -4.37500000E-01  1.87500000E-01
                      -3.12500000E-01 -3.75000000E-01  0.00000000E+00
                      -2.50000000E-01 -3.75000000E-01  6.25000000E-02
                      -1.87500000E-01 -3.75000000E-01  1.25000000E-01
                      -1.25000000E-01 -3.75000000E-01  1.87500000E-01
                      -6.25000000E-02 -3.75000000E-01  2.50000000E-01
                      -6.25000000E-02  2.50000000E-01  0.00000000E+00
                      -1.25000000E-01  3.12500000E-01  0.00000000E+00
                      -1.87500000E-01  3.75000000E-01  0.00000000E+00
                      -2.50000000E-01  4.37500000E-01  0.00000000E+00
                      -3.12500000E-01  5.00000000E-01  0.00000000E+00
                      -2.50000000E-01  5.00000000E-01  6.25000000E-02
                      -1.87500000E-01  5.00000000E-01  1.25000000E-01
                      -3.75000000E-01 -4.37500000E-01  0.00000000E+00
                      -3.12500000E-01 -4.37500000E-01  6.25000000E-02
                      -2.50000000E-01 -4.37500000E-01  1.25000000E-01
                      -1.87500000E-01 -4.37500000E-01  1.87500000E-01
                      -1.25000000E-01 -4.37500000E-01  2.50000000E-01
                      -6.25000000E-02 -4.37500000E-01  3.12500000E-01
                      -6.25000000E-02  1.25000000E-01  0.00000000E+00
                      -1.25000000E-01  1.87500000E-01  0.00000000E+00
                      -1.87500000E-01  2.50000000E-01  0.00000000E+00
                      -2.50000000E-01  3.12500000E-01  0.00000000E+00
              kpt2    -6.25000000E-02 -1.25000000E-01  0.00000000E+00
                      -1.25000000E-01 -6.25000000E-02  0.00000000E+00
                      -6.25000000E-02 -6.25000000E-02  6.25000000E-02
                      -6.25000000E-02 -2.50000000E-01  0.00000000E+00
                      -1.25000000E-01 -1.87500000E-01  0.00000000E+00
                      -6.25000000E-02 -1.87500000E-01  6.25000000E-02
                      -1.87500000E-01 -1.25000000E-01  0.00000000E+00
                      -1.25000000E-01 -1.25000000E-01  6.25000000E-02
                      -6.25000000E-02 -1.25000000E-01  1.25000000E-01
                      -2.50000000E-01 -6.25000000E-02  0.00000000E+00
                      -1.87500000E-01 -6.25000000E-02  6.25000000E-02
                      -1.25000000E-01 -6.25000000E-02  1.25000000E-01
                      -6.25000000E-02 -6.25000000E-02  1.87500000E-01
                      -6.25000000E-02 -3.75000000E-01  0.00000000E+00
                      -1.25000000E-01 -3.12500000E-01  0.00000000E+00
                      -6.25000000E-02 -3.12500000E-01  6.25000000E-02
                      -1.87500000E-01 -2.50000000E-01  0.00000000E+00
                      -1.25000000E-01 -2.50000000E-01  6.25000000E-02
                      -6.25000000E-02 -2.50000000E-01  1.25000000E-01
                      -2.50000000E-01 -1.87500000E-01  0.00000000E+00
                      -1.87500000E-01 -1.87500000E-01  6.25000000E-02
                      -1.25000000E-01 -1.87500000E-01  1.25000000E-01
                      -6.25000000E-02 -1.87500000E-01  1.87500000E-01
                      -3.12500000E-01 -1.25000000E-01  0.00000000E+00
                      -2.50000000E-01 -1.25000000E-01  6.25000000E-02
                      -1.87500000E-01 -1.25000000E-01  1.25000000E-01
                      -1.25000000E-01 -1.25000000E-01  1.87500000E-01
                      -6.25000000E-02 -1.25000000E-01  2.50000000E-01
                      -3.75000000E-01 -6.25000000E-02  0.00000000E+00
                      -3.12500000E-01 -6.25000000E-02  6.25000000E-02
                      -2.50000000E-01 -6.25000000E-02  1.25000000E-01
                      -1.87500000E-01 -6.25000000E-02  1.87500000E-01
                      -1.25000000E-01 -6.25000000E-02  2.50000000E-01
                      -6.25000000E-02 -6.25000000E-02  3.12500000E-01
                      -6.25000000E-02  5.00000000E-01  0.00000000E+00
                      -1.25000000E-01 -4.37500000E-01  0.00000000E+00
                      -6.25000000E-02 -4.37500000E-01  6.25000000E-02
                      -1.87500000E-01 -3.75000000E-01  0.00000000E+00
                      -1.25000000E-01 -3.75000000E-01  6.25000000E-02
                      -6.25000000E-02 -3.75000000E-01  1.25000000E-01
                      -2.50000000E-01 -3.12500000E-01  0.00000000E+00
                      -1.87500000E-01 -3.12500000E-01  6.25000000E-02
                      -1.25000000E-01 -3.12500000E-01  1.25000000E-01
                      -6.25000000E-02 -3.12500000E-01  1.87500000E-01
                      -3.12500000E-01 -2.50000000E-01  0.00000000E+00
                      -2.50000000E-01 -2.50000000E-01  6.25000000E-02
                      -1.87500000E-01 -2.50000000E-01  1.25000000E-01
                      -1.25000000E-01 -2.50000000E-01  1.87500000E-01
                      -6.25000000E-02 -2.50000000E-01  2.50000000E-01
                      -3.75000000E-01 -1.87500000E-01  0.00000000E+00
              kpt3    -6.25000000E-02 -1.25000000E-01  0.00000000E+00
                      -1.25000000E-01 -6.25000000E-02  0.00000000E+00
                      -6.25000000E-02 -6.25000000E-02  6.25000000E-02
                      -6.25000000E-02 -2.50000000E-01  0.00000000E+00
                      -1.25000000E-01 -1.87500000E-01  0.00000000E+00
                      -6.25000000E-02 -1.87500000E-01  6.25000000E-02
                      -1.87500000E-01 -1.25000000E-01  0.00000000E+00
                      -1.25000000E-01 -1.25000000E-01  6.25000000E-02
                      -6.25000000E-02 -1.25000000E-01  1.25000000E-01
                      -2.50000000E-01 -6.25000000E-02  0.00000000E+00
                      -1.87500000E-01 -6.25000000E-02  6.25000000E-02
                      -1.25000000E-01 -6.25000000E-02  1.25000000E-01
                      -6.25000000E-02 -6.25000000E-02  1.87500000E-01
                      -6.25000000E-02 -3.75000000E-01  0.00000000E+00
                      -1.25000000E-01 -3.12500000E-01  0.00000000E+00
                      -6.25000000E-02 -3.12500000E-01  6.25000000E-02
                      -1.87500000E-01 -2.50000000E-01  0.00000000E+00
                      -1.25000000E-01 -2.50000000E-01  6.25000000E-02
                      -6.25000000E-02 -2.50000000E-01  1.25000000E-01
                      -2.50000000E-01 -1.87500000E-01  0.00000000E+00
                      -1.87500000E-01 -1.87500000E-01  6.25000000E-02
                      -1.25000000E-01 -1.87500000E-01  1.25000000E-01
                      -6.25000000E-02 -1.87500000E-01  1.87500000E-01
                      -3.12500000E-01 -1.25000000E-01  0.00000000E+00
                      -2.50000000E-01 -1.25000000E-01  6.25000000E-02
                      -1.87500000E-01 -1.25000000E-01  1.25000000E-01
                      -1.25000000E-01 -1.25000000E-01  1.87500000E-01
                      -6.25000000E-02 -1.25000000E-01  2.50000000E-01
                      -3.75000000E-01 -6.25000000E-02  0.00000000E+00
                      -3.12500000E-01 -6.25000000E-02  6.25000000E-02
                      -2.50000000E-01 -6.25000000E-02  1.25000000E-01
                      -1.87500000E-01 -6.25000000E-02  1.87500000E-01
                      -1.25000000E-01 -6.25000000E-02  2.50000000E-01
                      -6.25000000E-02 -6.25000000E-02  3.12500000E-01
                      -6.25000000E-02  5.00000000E-01  0.00000000E+00
                      -1.25000000E-01 -4.37500000E-01  0.00000000E+00
                      -6.25000000E-02 -4.37500000E-01  6.25000000E-02
                      -1.87500000E-01 -3.75000000E-01  0.00000000E+00
                      -1.25000000E-01 -3.75000000E-01  6.25000000E-02
                      -6.25000000E-02 -3.75000000E-01  1.25000000E-01
                      -2.50000000E-01 -3.12500000E-01  0.00000000E+00
                      -1.87500000E-01 -3.12500000E-01  6.25000000E-02
                      -1.25000000E-01 -3.12500000E-01  1.25000000E-01
                      -6.25000000E-02 -3.12500000E-01  1.87500000E-01
                      -3.12500000E-01 -2.50000000E-01  0.00000000E+00
                      -2.50000000E-01 -2.50000000E-01  6.25000000E-02
                      -1.87500000E-01 -2.50000000E-01  1.25000000E-01
                      -1.25000000E-01 -2.50000000E-01  1.87500000E-01
                      -6.25000000E-02 -2.50000000E-01  2.50000000E-01
                      -3.75000000E-01 -1.87500000E-01  0.00000000E+00
              kpt4    -6.25000000E-02 -1.25000000E-01  0.00000000E+00
                      -1.25000000E-01 -6.25000000E-02  0.00000000E+00
                      -6.25000000E-02 -6.25000000E-02  6.25000000E-02
                      -6.25000000E-02 -2.50000000E-01  0.00000000E+00
                      -1.25000000E-01 -1.87500000E-01  0.00000000E+00
                      -6.25000000E-02 -1.87500000E-01  6.25000000E-02
                      -1.87500000E-01 -1.25000000E-01  0.00000000E+00
                      -1.25000000E-01 -1.25000000E-01  6.25000000E-02
                      -6.25000000E-02 -1.25000000E-01  1.25000000E-01
                      -2.50000000E-01 -6.25000000E-02  0.00000000E+00
                      -1.87500000E-01 -6.25000000E-02  6.25000000E-02
                      -1.25000000E-01 -6.25000000E-02  1.25000000E-01
                      -6.25000000E-02 -6.25000000E-02  1.87500000E-01
                      -6.25000000E-02 -3.75000000E-01  0.00000000E+00
                      -1.25000000E-01 -3.12500000E-01  0.00000000E+00
                      -6.25000000E-02 -3.12500000E-01  6.25000000E-02
                      -1.87500000E-01 -2.50000000E-01  0.00000000E+00
                      -1.25000000E-01 -2.50000000E-01  6.25000000E-02
                      -6.25000000E-02 -2.50000000E-01  1.25000000E-01
                      -2.50000000E-01 -1.87500000E-01  0.00000000E+00
                      -1.87500000E-01 -1.87500000E-01  6.25000000E-02
                      -1.25000000E-01 -1.87500000E-01  1.25000000E-01
                      -6.25000000E-02 -1.87500000E-01  1.87500000E-01
                      -3.12500000E-01 -1.25000000E-01  0.00000000E+00
                      -2.50000000E-01 -1.25000000E-01  6.25000000E-02
                      -1.87500000E-01 -1.25000000E-01  1.25000000E-01
                      -1.25000000E-01 -1.25000000E-01  1.87500000E-01
                      -6.25000000E-02 -1.25000000E-01  2.50000000E-01
                      -3.75000000E-01 -6.25000000E-02  0.00000000E+00
                      -3.12500000E-01 -6.25000000E-02  6.25000000E-02
                      -2.50000000E-01 -6.25000000E-02  1.25000000E-01
                      -1.87500000E-01 -6.25000000E-02  1.87500000E-01
                      -1.25000000E-01 -6.25000000E-02  2.50000000E-01
                      -6.25000000E-02 -6.25000000E-02  3.12500000E-01
                      -6.25000000E-02  5.00000000E-01  0.00000000E+00
                      -1.25000000E-01 -4.37500000E-01  0.00000000E+00
                      -6.25000000E-02 -4.37500000E-01  6.25000000E-02
                      -1.87500000E-01 -3.75000000E-01  0.00000000E+00
                      -1.25000000E-01 -3.75000000E-01  6.25000000E-02
                      -6.25000000E-02 -3.75000000E-01  1.25000000E-01
                      -2.50000000E-01 -3.12500000E-01  0.00000000E+00
                      -1.87500000E-01 -3.12500000E-01  6.25000000E-02
                      -1.25000000E-01 -3.12500000E-01  1.25000000E-01
                      -6.25000000E-02 -3.12500000E-01  1.87500000E-01
                      -3.12500000E-01 -2.50000000E-01  0.00000000E+00
                      -2.50000000E-01 -2.50000000E-01  6.25000000E-02
                      -1.87500000E-01 -2.50000000E-01  1.25000000E-01
                      -1.25000000E-01 -2.50000000E-01  1.87500000E-01
                      -6.25000000E-02 -2.50000000E-01  2.50000000E-01
                      -3.75000000E-01 -1.87500000E-01  0.00000000E+00
                       outvar_i_n : Printing only first  50 k-points.
           kptopt1          1
           kptopt2          2
           kptopt3          2
           kptopt4          2
         kptrlatt        8   -8    8     -8    8    8     -8   -8    8
          kptrlen      9.59498131E+01
P           mkmem1         15
P           mkmem2        256
P           mkmem3        256
P           mkmem4        256
P          mkqmem1         15
P          mkqmem2        256
P          mkqmem3        256
P          mkqmem4        256
P          mk1mem1         15
P          mk1mem2        256
P          mk1mem3        256
P          mk1mem4        256
            natom           2
            nband1          5
            nband2          4
            nband3          4
            nband4          4
           ndtset           4
            ngfft          45      45      45
             nkpt1         60
             nkpt2       1024
             nkpt3       1024
             nkpt4       1024
            nstep         100
             nsym          24
           ntypat           2
              occ1     2.000000  2.000000  2.000000  2.000000  0.000000
              occ3     2.000000  2.000000  2.000000  2.000000
              occ4     2.000000  2.000000  2.000000  2.000000
        optdriver1          0
        optdriver2          0
        optdriver3          1
        optdriver4          1
            rfdir1          0       0       0
            rfdir2          0       0       0
            rfdir3          1       1       1
            rfdir4          1       1       1
           rfelfd1          0
           rfelfd2          0
           rfelfd3          2
           rfelfd4          0
           rfstrs1          0
           rfstrs2          0
           rfstrs3          0
           rfstrs4          3
            rprim      0.0000000000E+00  5.0000000000E-01  5.0000000000E-01
                       5.0000000000E-01  0.0000000000E+00  5.0000000000E-01
                       5.0000000000E-01  5.0000000000E-01  0.0000000000E+00
           shiftk      5.00000000E-01  5.00000000E-01  5.00000000E-01
          spgroup         216
           symrel      1  0  0   0  1  0   0  0  1       0 -1  1   0 -1  0   1 -1  0
                      -1  0  0  -1  0  1  -1  1  0       0  1 -1   1  0 -1   0  0 -1
                      -1  0  0  -1  1  0  -1  0  1       0 -1  1   1 -1  0   0 -1  0
                       1  0  0   0  0  1   0  1  0       0  1 -1   0  0 -1   1  0 -1
                      -1  0  1  -1  1  0  -1  0  0       0 -1  0   1 -1  0   0 -1  1
                       1  0 -1   0  0 -1   0  1 -1       0  1  0   0  0  1   1  0  0
                       1  0 -1   0  1 -1   0  0 -1       0 -1  0   0 -1  1   1 -1  0
                      -1  0  1  -1  0  0  -1  1  0       0  1  0   1  0  0   0  0  1
                       0  0 -1   0  1 -1   1  0 -1       1 -1  0   0 -1  1   0 -1  0
                       0  0  1   1  0  0   0  1  0      -1  1  0  -1  0  0  -1  0  1
                       0  0  1   0  1  0   1  0  0       1 -1  0   0 -1  0   0 -1  1
                       0  0 -1   1  0 -1   0  1 -1      -1  1  0  -1  0  1  -1  0  0
           toldfe1     1.00000000E-12 Hartree
           toldfe2     0.00000000E+00 Hartree
           toldfe3     0.00000000E+00 Hartree
           toldfe4     1.00000000E-12 Hartree
           tolwfr1     0.00000000E+00
           tolwfr2     1.00000000E-22
           tolwfr3     1.00000000E-22
           tolwfr4     0.00000000E+00
            typat      1  2
              wtk1       0.01172    0.01172    0.01172    0.02344    0.01172    0.01172
                         0.02344    0.01172    0.02344    0.02344    0.01172    0.01172
                         0.02344    0.01172    0.02344    0.02344    0.01172    0.02344
                         0.02344    0.02344    0.01172    0.01172    0.01172    0.02344
                         0.01172    0.02344    0.02344    0.02344    0.01172    0.02344
                         0.02344    0.02344    0.02344    0.01172    0.01172    0.01172
                         0.01172    0.01172    0.02344    0.02344    0.01172    0.02344
                         0.02344    0.02344    0.02344    0.02344    0.01172    0.01172
                         0.01172    0.01172
              wtk2       0.00098    0.00098    0.00098    0.00098    0.00098    0.00098
                         0.00098    0.00098    0.00098    0.00098    0.00098    0.00098
                         0.00098    0.00098    0.00098    0.00098    0.00098    0.00098
                         0.00098    0.00098    0.00098    0.00098    0.00098    0.00098
                         0.00098    0.00098    0.00098    0.00098    0.00098    0.00098
                         0.00098    0.00098    0.00098    0.00098    0.00098    0.00098
                         0.00098    0.00098    0.00098    0.00098    0.00098    0.00098
                         0.00098    0.00098    0.00098    0.00098    0.00098    0.00098
                         0.00098    0.00098
              wtk3       0.00098    0.00098    0.00098    0.00098    0.00098    0.00098
                         0.00098    0.00098    0.00098    0.00098    0.00098    0.00098
                         0.00098    0.00098    0.00098    0.00098    0.00098    0.00098
                         0.00098    0.00098    0.00098    0.00098    0.00098    0.00098
                         0.00098    0.00098    0.00098    0.00098    0.00098    0.00098
                         0.00098    0.00098    0.00098    0.00098    0.00098    0.00098
                         0.00098    0.00098    0.00098    0.00098    0.00098    0.00098
                         0.00098    0.00098    0.00098    0.00098    0.00098    0.00098
                         0.00098    0.00098
              wtk4       0.00098    0.00098    0.00098    0.00098    0.00098    0.00098
                         0.00098    0.00098    0.00098    0.00098    0.00098    0.00098
                         0.00098    0.00098    0.00098    0.00098    0.00098    0.00098
                         0.00098    0.00098    0.00098    0.00098    0.00098    0.00098
                         0.00098    0.00098    0.00098    0.00098    0.00098    0.00098
                         0.00098    0.00098    0.00098    0.00098    0.00098    0.00098
                         0.00098    0.00098    0.00098    0.00098    0.00098    0.00098
                         0.00098    0.00098    0.00098    0.00098    0.00098    0.00098
                         0.00098    0.00098
                       outvars : Printing only first  50 k-points.
           xangst      0.0000000000E+00  0.0000000000E+00  0.0000000000E+00
                       1.5867016961E+00  1.5867016961E+00  1.5867016961E+00
            xcart      0.0000000000E+00  0.0000000000E+00  0.0000000000E+00
                       2.9984316602E+00  2.9984316603E+00  2.9984316602E+00
             xred      0.0000000000E+00  0.0000000000E+00  0.0000000000E+00
                       2.5000000000E-01  2.5000000000E-01  2.5000000000E-01
            znucl       49.00000   51.00000

================================================================================

 chkinp: Checking input parameters for consistency, jdtset=   1.

 chkinp: Checking input parameters for consistency, jdtset=   2.

 chkinp: Checking input parameters for consistency, jdtset=   3.

 chkinp: Checking input parameters for consistency, jdtset=   4.

================================================================================
== DATASET  1 ==================================================================
-   mpi_nproc: 4, omp_nthreads: 8 (-1 if OMP is not activated)


--- !DatasetInfo
iteration_state: {dtset: 1, }
dimensions: {natom: 2, nkpt: 60, mband: 5, nsppol: 1, nspinor: 1, nspden: 1, mpw: 3000, }
cutoff_energies: {ecut:  25.0, pawecutdg:  -1.0, }
electrons: {nelect:   8.00000000E+00, charge:   0.00000000E+00, occopt:   1.00000000E+00, tsmear:   1.00000000E-02, }
meta: {optdriver: 0, ionmov: 0, optcell: 0, iscf: 7, paral_kgb: 0, }
...

 Exchange-correlation functional for the present dataset will be:
  LDA: old Teter (4/91) fit to Ceperley-Alder data - ixc=3

 Real(R)+Recip(G) space primitive vectors, cartesian coordinates (Bohr,Bohr^-1):
 R(1)=  0.0000000  5.9968633  5.9968633  G(1)= -0.0833769  0.0833769  0.0833769
 R(2)=  5.9968633  0.0000000  5.9968633  G(2)=  0.0833769 -0.0833769  0.0833769
 R(3)=  5.9968633  5.9968633  0.0000000  G(3)=  0.0833769  0.0833769 -0.0833769
 Unit cell volume ucvol=  4.3132283E+02 bohr^3
 Angles (23,13,12)=  6.00000000E+01  6.00000000E+01  6.00000000E+01 degrees

 getcut: wavevector=  0.0000  0.0000  0.0000  ngfft=  45  45  45
         ecut(hartree)=     27.563   => boxcut(ratio)=   2.19528

--- Pseudopotential description ------------------------------------------------
- pspini: atom type   1  psp file is /Users/lassi/Desktop/abinit_InSb/simulations/pseudos/49in.3.hgh
- pspatm: opening atomic psp file    /Users/lassi/Desktop/abinit_InSb/simulations/pseudos/49in.3.hgh
- Hartwigsen-Goedecker-Hutter psp for In,  from PRB58, 3641 (1998)
- 49.00000   3.00000     10605                znucl, zion, pspdat
    3    1    2    0      2001   0.00000      pspcod,pspxc,lmax,lloc,mmax,r2well
 rloc=   0.6100000
 cc1 =   2.8657770; cc2 =   0.0000000; cc3 =   0.0000000; cc4 =   0.0000000
 rrs =   0.7706020; h11s=   1.2561940; h22s=  -0.3972550; h33s=  -0.2783290
 rrp =   0.8581320; h11p=   0.4944590; h22p=  -0.3807890; h33p=   0.0000000
                    k11p=   0.0663670; k22p=  -0.0055630; k33p=   0.0000000
 rrd =   1.0886910; h11d=   0.1292080; h22d=   0.0000000; h33d=   0.0000000
                    k11d=   0.0044480; k22d=   0.0000000; k33d=   0.0000000
-  Local part computed in reciprocal space.

 pspatm : COMMENT -
  the projectors are not normalized,
  so that the KB energies are not consistent with 
  definition in PRB44, 8503 (1991). 
  However, this does not influence the results obtained hereafter.
  pspatm : epsatm=   17.25867767
         --- l  ekb(1:nproj) -->
             0   -0.872822   -0.248925    2.063593
             1   -1.350798    1.725815
             2    3.321137
 pspatm: atomic psp has been read  and splines computed

- pspini: atom type   2  psp file is /Users/lassi/Desktop/abinit_InSb/simulations/pseudos/51sb.5.hgh
- pspatm: opening atomic psp file    /Users/lassi/Desktop/abinit_InSb/simulations/pseudos/51sb.5.hgh
- Hartwigsen-Goedecker-Hutter psp for Sb,  from PRB58, 3641 (1998)
- 51.00000   5.00000     10605                znucl, zion, pspdat
    3    1    2    0      2001   0.00000      pspcod,pspxc,lmax,lloc,mmax,r2well
 rloc=   0.5900000
 cc1 =   6.6802280; cc2 =   0.0000000; cc3 =   0.0000000; cc4 =   0.0000000
 rrs =   0.5976840; h11s=   1.9514770; h22s=   0.0375370; h33s=  -0.7866310
 rrp =   0.6721220; h11p=   0.9703130; h22p=  -0.4667310; h33p=   0.0000000
                    k11p=   0.1392220; k22p=   0.0235130; k33p=   0.0000000
 rrd =   0.8565570; h11d=   0.3001030; h22d=   0.0000000; h33d=   0.0000000
                    k11d=   0.0094320; k22d=   0.0000000; k33d=   0.0000000
-  Local part computed in reciprocal space.

 pspatm : COMMENT -
  the projectors are not normalized,
  so that the KB energies are not consistent with 
  definition in PRB44, 8503 (1991). 
  However, this does not influence the results obtained hereafter.
  pspatm : epsatm=   32.54401099
         --- l  ekb(1:nproj) -->
             0   -0.778424    0.200340    1.488128
             1   -0.479727    0.969445
             2    1.439558
 pspatm: atomic psp has been read  and splines computed

   3.98421509E+02                                ecore*ucvol(ha*bohr**3)
--------------------------------------------------------------------------------

_setup2: Arith. and geom. avg. npw (full set) are    2981.164    2981.148

================================================================================

--- !BeginCycle
iteration_state: {dtset: 1, }
solver: {iscf: 7, nstep: 100, nline: 4, wfoptalg: 0, }
tolerances: {toldfe: 1.00E-12, }
...

     iter   Etot(hartree)      deltaE(h)  residm     vres2
 ETOT  1  -7.6669635322361    -7.667E+00 2.931E-02 1.742E+02
 ETOT  2  -7.6854305962150    -1.847E-02 8.138E-04 8.427E+00
 ETOT  3  -7.6858446894257    -4.141E-04 1.432E-03 8.866E-01
 ETOT  4  -7.6858911456440    -4.646E-05 5.869E-04 1.102E-02
 ETOT  5  -7.6858915886035    -4.430E-07 8.595E-05 1.038E-04
 ETOT  6  -7.6858915933699    -4.766E-09 2.656E-05 4.626E-07
 ETOT  7  -7.6858915933952    -2.529E-11 4.262E-06 2.448E-08
 ETOT  8  -7.6858915933962    -9.539E-13 1.258E-06 1.584E-09
 ETOT  9  -7.6858915933959     2.149E-13 2.132E-07 1.619E-11

 At SCF step    9, etot is converged : 
  for the second time, diff in etot=  2.149E-13 < toldfe=  1.000E-12

 Cartesian components of stress tensor (hartree/bohr^3)
  sigma(1 1)=  8.71856807E-07  sigma(3 2)=  0.00000000E+00
  sigma(2 2)=  8.71856807E-07  sigma(3 1)=  0.00000000E+00
  sigma(3 3)=  8.71856807E-07  sigma(2 1)=  0.00000000E+00


--- !ResultsGS
iteration_state: {dtset: 1, }
comment   : Summary of ground state results
lattice_vectors:
- [  0.0000000,   5.9968633,   5.9968633, ]
- [  5.9968633,   0.0000000,   5.9968633, ]
- [  5.9968633,   5.9968633,   0.0000000, ]
lattice_lengths: [   8.48085,    8.48085,    8.48085, ]
lattice_angles: [ 60.000,  60.000,  60.000, ] # degrees, (23, 13, 12)
lattice_volume:   4.3132283E+02
convergence: {deltae:  2.149E-13, res2:  1.619E-11, residm:  2.132E-07, diffor: null, }
etotal    :  -7.68589159E+00
entropy   :   0.00000000E+00
fermie    :   2.83653714E-02
cartesian_stress_tensor: # hartree/bohr^3
- [  8.71856807E-07,   0.00000000E+00,   0.00000000E+00, ]
- [  0.00000000E+00,   8.71856807E-07,   0.00000000E+00, ]
- [  0.00000000E+00,   0.00000000E+00,   8.71856807E-07, ]
pressure_GPa:  -2.5651E-02
xred      :
- [  0.0000E+00,   0.0000E+00,   0.0000E+00, In]
- [  2.5000E-01,   2.5000E-01,   2.5000E-01, Sb]
cartesian_forces: # hartree/bohr
- [ -0.00000000E+00,  -0.00000000E+00,  -0.00000000E+00, ]
- [ -0.00000000E+00,  -0.00000000E+00,  -0.00000000E+00, ]
force_length_stats: {min:   0.00000000E+00, max:   0.00000000E+00, mean:   0.00000000E+00, }
...

 Integrated electronic density in atomic spheres:
 ------------------------------------------------
 Atom  Sphere_radius  Integrated_density
    1        2.00000          0.67798825
    2        2.00000          1.59019084
================================================================================

 ----iterations are completed or convergence reached----

 Mean square residual over all n,k,spin=   81.486E-11; max=  21.325E-08
 reduced coordinates (array xred) for    2 atoms
       0.000000000000      0.000000000000      0.000000000000
       0.250000000000      0.250000000000      0.250000000000
 rms dE/dt=  0.0000E+00; max dE/dt=  0.0000E+00; dE/dt below (all hartree)
    1       0.000000000000      0.000000000000      0.000000000000
    2       0.000000000000      0.000000000000      0.000000000000

 cartesian coordinates (angstrom) at end:
    1      0.00000000000000     0.00000000000000     0.00000000000000
    2      1.58670169611897     1.58670169611897     1.58670169611897

 cartesian forces (hartree/bohr) at end:
    1     -0.00000000000000    -0.00000000000000    -0.00000000000000
    2     -0.00000000000000    -0.00000000000000    -0.00000000000000
 frms,max,avg= 0.0000000E+00 0.0000000E+00   0.000E+00  0.000E+00  0.000E+00 h/b

 cartesian forces (eV/Angstrom) at end:
    1     -0.00000000000000    -0.00000000000000    -0.00000000000000
    2     -0.00000000000000    -0.00000000000000    -0.00000000000000
 frms,max,avg= 0.0000000E+00 0.0000000E+00   0.000E+00  0.000E+00  0.000E+00 e/A
 length scales= 11.993726641000 11.993726641000 11.993726641000 bohr
              =  6.346806784476  6.346806784476  6.346806784476 angstroms
 prteigrs : about to open file NLO_3o_DS1_EIG
 Fermi (or HOMO) energy (hartree) =   0.02837   Average Vxc (hartree)=  -0.28621
 Eigenvalues (hartree) for nkpt=  60  k points:
 kpt#   1, nband=  5, wtk=  0.01172, kpt= -0.0625 -0.1250  0.0000 (reduced coord)
  -0.37140   -0.02947    0.01662    0.01910    0.08567
 prteigrs : prtvol=0 or 1, do not print more k-points.


--- !EnergyTerms
iteration_state     : {dtset: 1, }
comment             : Components of total free energy in Hartree
kinetic             :  2.54533790755530E+00
hartree             :  6.20775706599421E-01
xc                  : -2.13782136668020E+00
Ewald energy        : -7.50156290062432E+00
psp_core            :  9.23719961726088E-01
local_psp           : -2.33664228628237E+00
non_local_psp       :  2.00301384310134E-01
total_energy        : -7.68589159339594E+00
total_energy_eV     : -2.09143746454244E+02
band_energy         : -1.13513236986649E+00
...


 Cartesian components of stress tensor (hartree/bohr^3)
  sigma(1 1)=  8.71856807E-07  sigma(3 2)=  0.00000000E+00
  sigma(2 2)=  8.71856807E-07  sigma(3 1)=  0.00000000E+00
  sigma(3 3)=  8.71856807E-07  sigma(2 1)=  0.00000000E+00

-Cartesian components of stress tensor (GPa)         [Pressure= -2.5651E-02 GPa]
- sigma(1 1)=  2.56509085E-02  sigma(3 2)=  0.00000000E+00
- sigma(2 2)=  2.56509085E-02  sigma(3 1)=  0.00000000E+00
- sigma(3 3)=  2.56509085E-02  sigma(2 1)=  0.00000000E+00

================================================================================
== DATASET  2 ==================================================================
-   mpi_nproc: 4, omp_nthreads: 8 (-1 if OMP is not activated)


--- !DatasetInfo
iteration_state: {dtset: 2, }
dimensions: {natom: 2, nkpt: 1024, mband: 4, nsppol: 1, nspinor: 1, nspden: 1, mpw: 3000, }
cutoff_energies: {ecut:  25.0, pawecutdg:  -1.0, }
electrons: {nelect:   8.00000000E+00, charge:   0.00000000E+00, occopt:   1.00000000E+00, tsmear:   1.00000000E-02, }
meta: {optdriver: 0, ionmov: 0, optcell: 0, iscf: -2, paral_kgb: 0, }
...

 mkfilename : getwfk/=0, take file _WFK from output of DATASET   1.

 mkfilename : getden/=0, take file _DEN from output of DATASET   1.

 Exchange-correlation functional for the present dataset will be:
  LDA: old Teter (4/91) fit to Ceperley-Alder data - ixc=3

 Real(R)+Recip(G) space primitive vectors, cartesian coordinates (Bohr,Bohr^-1):
 R(1)=  0.0000000  5.9968633  5.9968633  G(1)= -0.0833769  0.0833769  0.0833769
 R(2)=  5.9968633  0.0000000  5.9968633  G(2)=  0.0833769 -0.0833769  0.0833769
 R(3)=  5.9968633  5.9968633  0.0000000  G(3)=  0.0833769  0.0833769 -0.0833769
 Unit cell volume ucvol=  4.3132283E+02 bohr^3
 Angles (23,13,12)=  6.00000000E+01  6.00000000E+01  6.00000000E+01 degrees

 getcut: wavevector=  0.0000  0.0000  0.0000  ngfft=  45  45  45
         ecut(hartree)=     27.563   => boxcut(ratio)=   2.19528
--------------------------------------------------------------------------------

-inwffil : will read wavefunctions from disk file NLO_3o_DS1_WFK

================================================================================
 prteigrs : about to open file NLO_3o_DS2_EIG
 Non-SCF case, kpt    1 ( -0.06250 -0.12500  0.00000), residuals and eigenvalues=
  7.90E-24  4.77E-23  5.28E-23  1.82E-23
 -3.7140E-01 -2.9466E-02  1.6621E-02  1.9105E-02
 prteigrs : prtvol=0 or 1, do not print more k-points.



--- !ResultsGS
iteration_state: {dtset: 2, }
comment   : Summary of ground state results
lattice_vectors:
- [  0.0000000,   5.9968633,   5.9968633, ]
- [  5.9968633,   0.0000000,   5.9968633, ]
- [  5.9968633,   5.9968633,   0.0000000, ]
lattice_lengths: [   8.48085,    8.48085,    8.48085, ]
lattice_angles: [ 60.000,  60.000,  60.000, ] # degrees, (23, 13, 12)
lattice_volume:   4.3132283E+02
convergence: {deltae:  0.000E+00, res2:  0.000E+00, residm:  9.992E-23, diffor:  0.000E+00, }
etotal    :  -7.68589159E+00
entropy   :   0.00000000E+00
fermie    :   2.83653714E-02
cartesian_stress_tensor: null
pressure_GPa: null
xred      :
- [  0.0000E+00,   0.0000E+00,   0.0000E+00, In]
- [  2.5000E-01,   2.5000E-01,   2.5000E-01, Sb]
cartesian_forces: null
force_length_stats: {min: null, max: null, mean: null, }
...

 Integrated electronic density in atomic spheres:
 ------------------------------------------------
 Atom  Sphere_radius  Integrated_density
    1        2.00000          0.67798825
    2        2.00000          1.59019084
================================================================================

 ----iterations are completed or convergence reached----

 Mean square residual over all n,k,spin=   40.997E-24; max=  99.921E-24
 reduced coordinates (array xred) for    2 atoms
       0.000000000000      0.000000000000      0.000000000000
       0.250000000000      0.250000000000      0.250000000000

 cartesian coordinates (angstrom) at end:
    1      0.00000000000000     0.00000000000000     0.00000000000000
    2      1.58670169611897     1.58670169611897     1.58670169611897
 length scales= 11.993726641000 11.993726641000 11.993726641000 bohr
              =  6.346806784476  6.346806784476  6.346806784476 angstroms
 prteigrs : about to open file NLO_3o_DS2_EIG
 Eigenvalues (hartree) for nkpt=1024  k points:
 kpt#   1, nband=  4, wtk=  0.00098, kpt= -0.0625 -0.1250  0.0000 (reduced coord)
  -0.37140   -0.02947    0.01662    0.01910
 prteigrs : prtvol=0 or 1, do not print more k-points.


================================================================================
== DATASET  3 ==================================================================
-   mpi_nproc: 4, omp_nthreads: 8 (-1 if OMP is not activated)


--- !DatasetInfo
iteration_state: {dtset: 3, }
dimensions: {natom: 2, nkpt: 1024, mband: 4, nsppol: 1, nspinor: 1, nspden: 1, mpw: 3000, }
cutoff_energies: {ecut:  25.0, pawecutdg:  -1.0, }
electrons: {nelect:   8.00000000E+00, charge:   0.00000000E+00, occopt:   1.00000000E+00, tsmear:   1.00000000E-02, }
meta: {optdriver: 1, rfelfd: 2, }
...

 mkfilename : getwfk/=0, take file _WFK from output of DATASET   2.

 Exchange-correlation functional for the present dataset will be:
  LDA: old Teter (4/91) fit to Ceperley-Alder data - ixc=3

 Real(R)+Recip(G) space primitive vectors, cartesian coordinates (Bohr,Bohr^-1):
 R(1)=  0.0000000  5.9968633  5.9968633  G(1)= -0.0833769  0.0833769  0.0833769
 R(2)=  5.9968633  0.0000000  5.9968633  G(2)=  0.0833769 -0.0833769  0.0833769
 R(3)=  5.9968633  5.9968633  0.0000000  G(3)=  0.0833769  0.0833769 -0.0833769
 Unit cell volume ucvol=  4.3132283E+02 bohr^3
 Angles (23,13,12)=  6.00000000E+01  6.00000000E+01  6.00000000E+01 degrees

 getcut: wavevector=  0.0000  0.0000  0.0000  ngfft=  45  45  45
         ecut(hartree)=     27.563   => boxcut(ratio)=   2.19528
--------------------------------------------------------------------------------

-inwffil : will read wavefunctions from disk file NLO_3o_DS2_WFK

 ==>  initialize data related to q vector <== 

 The list of irreducible perturbations for this q vector is:
    1)    idir= 1    ipert=   3
    2)    idir= 2    ipert=   3
    3)    idir= 3    ipert=   3

================================================================================

--------------------------------------------------------------------------------
 Perturbation wavevector (in red.coord.)   0.000000  0.000000  0.000000
 Perturbation : derivative vs k along direction   1

 dfpt_looppert : COMMENT -
  In a d/dk calculation, iscf is set to -3 automatically.
 The set of symmetries contains only one element for this perturbation.
 symkpt : not enough symmetry to change the number of k points.

--------------------------------------------------------------------------------

-inwffil : will read wavefunctions from disk file NLO_3o_DS2_WFK
--------------------------------------------------------------------------------

 Initialisation of the first-order wave-functions :
  ireadwf=   0

--- !BeginCycle
iteration_state: {dtset: 3, }
solver: {iscf: 7, nstep: 100, nline: 4, wfoptalg: 0, }
tolerances: {tolwfr: 1.00E-22, }
...

     iter   2DEtotal(Ha)        deltaE(Ha) residm    vres2
-ETOT  1  -7.7002844052105     -7.700E+00 3.766E-01 0.000E+00
 ETOT  2  -7.7665772364944     -6.629E-02 2.318E-01 0.000E+00
 ETOT  3  -7.7696843325668     -3.107E-03 9.648E-03 0.000E+00
 ETOT  4  -7.7700410848394     -3.568E-04 5.210E-03 0.000E+00
 ETOT  5  -7.7700969591147     -5.587E-05 2.683E-04 0.000E+00
 ETOT  6  -7.7701065315051     -9.572E-06 1.595E-04 0.000E+00
 ETOT  7  -7.7701082171014     -1.686E-06 8.344E-06 0.000E+00
 ETOT  8  -7.7701085168508     -2.997E-07 5.127E-06 0.000E+00
 ETOT  9  -7.7701085703950     -5.354E-08 2.660E-07 0.000E+00
 ETOT 10  -7.7701085799820     -9.587E-09 1.665E-07 0.000E+00
 ETOT 11  -7.7701085817013     -1.719E-09 8.563E-09 0.000E+00
 ETOT 12  -7.7701085820099     -3.086E-10 5.415E-09 0.000E+00
 ETOT 13  -7.7701085820654     -5.546E-11 2.769E-10 0.000E+00
 ETOT 14  -7.7701085820753     -9.962E-12 1.761E-10 0.000E+00
 ETOT 15  -7.7701085820771     -1.807E-12 8.975E-12 0.000E+00
 ETOT 16  -7.7701085820774     -3.135E-13 5.722E-12 0.000E+00
 ETOT 17  -7.7701085820775     -4.707E-14 2.912E-13 0.000E+00
 ETOT 18  -7.7701085820775     -1.421E-14 1.859E-13 0.000E+00
 ETOT 19  -7.7701085820775      8.882E-15 9.457E-15 0.000E+00
 ETOT 20  -7.7701085820775     -7.994E-15 6.039E-15 0.000E+00
 ETOT 21  -7.7701085820775     -9.770E-15 3.072E-16 0.000E+00
 ETOT 22  -7.7701085820775     -8.882E-16 1.961E-16 0.000E+00
 ETOT 23  -7.7701085820775      6.217E-15 9.982E-18 0.000E+00
 ETOT 24  -7.7701085820775     -2.665E-15 6.368E-18 0.000E+00
 ETOT 25  -7.7701085820775      7.994E-15 3.243E-19 0.000E+00
 ETOT 26  -7.7701085820775     -6.217E-15 2.068E-19 0.000E+00
 ETOT 27  -7.7701085820775      1.155E-14 1.054E-20 0.000E+00
 ETOT 28  -7.7701085820775      1.776E-15 6.715E-21 0.000E+00
 ETOT 29  -7.7701085820775     -3.553E-15 3.425E-22 0.000E+00
 ETOT 30  -7.7701085820775     -1.776E-15 2.181E-22 0.000E+00
 ETOT 31  -7.7701085820775      0.000E+00 9.992E-23 0.000E+00

 At SCF step   31   max residual=  9.99E-23 < tolwfr=  1.00E-22 =>converged.
================================================================================

 ----iterations are completed or convergence reached----

 Mean square residual over all n,k,spin=   48.204E-24; max=  99.919E-24
 dfpt_looppert : ek2=    1.3173242348E+01
          f-sum rule ratio=    1.0010486452E+00 (note : ecutsm/=0)
 prteigrs : about to open file NLO_3t_1WF1_EIG
 Expectation of eigenvalue derivatives (hartree) for nkpt=1024  k points:
  (in case of degenerate eigenvalues, averaged derivative)
 kpt#   1, nband=  4, wtk=  0.00098, kpt= -0.0625 -0.1250  0.0000 (reduced coord)
  -0.01416   -0.00733    0.11814    0.18003
 prteigrs : prtvol=0 or 1, do not print more k-points.


 Eight components of 2nd-order total energy (hartree) are
 1,2,3: 0th-order hamiltonian combined with 1st-order wavefunctions
     kin0=   2.25717303E+01 eigvalue=   1.17491159E+00  local=  -1.86593432E+01
 4,5,6: 1st-order hamiltonian combined with 1st and 0th-order wfs
     kin1=  -1.31870564E+01  Hartree=   0.00000000E+00     xc=   0.00000000E+00
 7,8,9: eventually, occupation + non-local contributions
    edocc=   0.00000000E+00     enl0=   2.68280991E+00   enl1=  -2.35316076E+00
 1-9 gives the relaxation energy (to be shifted if some occ is /=2.0)
   erelax=  -7.77010858E+00
  No Ewald or frozen-wf contrib.: the relaxation energy is the total one
 2DEtotal=   -0.7770108582E+01 Ha. Also 2DEtotal=   -0.211435407261E+03 eV
    (  non-var. 2DEtotal :   -7.7701085821E+00 Ha)

--------------------------------------------------------------------------------
 Perturbation wavevector (in red.coord.)   0.000000  0.000000  0.000000
 Perturbation : derivative vs k along direction   2
 The set of symmetries contains only one element for this perturbation.
 symkpt : not enough symmetry to change the number of k points.

--------------------------------------------------------------------------------

-inwffil : will read wavefunctions from disk file NLO_3o_DS2_WFK
--------------------------------------------------------------------------------

 Initialisation of the first-order wave-functions :
  ireadwf=   0

--- !BeginCycle
iteration_state: {dtset: 3, }
solver: {iscf: 7, nstep: 100, nline: 4, wfoptalg: 0, }
tolerances: {tolwfr: 1.00E-22, }
...

     iter   2DEtotal(Ha)        deltaE(Ha) residm    vres2
-ETOT  1  -7.7005325328338     -7.701E+00 3.916E-01 0.000E+00
 ETOT  2  -7.7665432451129     -6.601E-02 2.419E-01 0.000E+00
 ETOT  3  -7.7696752180160     -3.132E-03 1.014E-02 0.000E+00
 ETOT  4  -7.7700394349424     -3.642E-04 5.352E-03 0.000E+00
 ETOT  5  -7.7700966936837     -5.726E-05 2.802E-04 0.000E+00
 ETOT  6  -7.7701064934157     -9.800E-06 1.647E-04 0.000E+00
 ETOT  7  -7.7701082124976     -1.719E-06 8.751E-06 0.000E+00
 ETOT  8  -7.7701085164454     -3.039E-07 5.320E-06 0.000E+00
 ETOT  9  -7.7701085703616     -5.392E-08 2.798E-07 0.000E+00
 ETOT 10  -7.7701085799396     -9.578E-09 1.733E-07 0.000E+00
 ETOT 11  -7.7701085816430     -1.703E-09 9.026E-09 0.000E+00
 ETOT 12  -7.7701085819462     -3.031E-10 5.654E-09 0.000E+00
 ETOT 13  -7.7701085820002     -5.400E-11 2.924E-10 0.000E+00
 ETOT 14  -7.7701085820098     -9.627E-12 1.843E-10 0.000E+00
 ETOT 15  -7.7701085820115     -1.704E-12 9.497E-12 0.000E+00
 ETOT 16  -7.7701085820118     -3.153E-13 6.007E-12 0.000E+00
 ETOT 17  -7.7701085820119     -5.063E-14 3.088E-13 0.000E+00
 ETOT 18  -7.7701085820119     -1.510E-14 1.957E-13 0.000E+00
 ETOT 19  -7.7701085820119      1.155E-14 1.005E-14 0.000E+00
 ETOT 20  -7.7701085820119     -8.882E-15 6.372E-15 0.000E+00
 ETOT 21  -7.7701085820119      5.329E-15 3.272E-16 0.000E+00
 ETOT 22  -7.7701085820119      3.553E-15 2.075E-16 0.000E+00
 ETOT 23  -7.7701085820119     -6.217E-15 1.066E-17 0.000E+00
 ETOT 24  -7.7701085820119      5.329E-15 6.755E-18 0.000E+00
 ETOT 25  -7.7701085820119     -1.155E-14 3.471E-19 0.000E+00
 ETOT 26  -7.7701085820119      1.776E-15 2.199E-19 0.000E+00
 ETOT 27  -7.7701085820119      5.329E-15 1.131E-20 0.000E+00
 ETOT 28  -7.7701085820119      2.665E-15 7.159E-21 0.000E+00
 ETOT 29  -7.7701085820119      0.000E+00 3.684E-22 0.000E+00
 ETOT 30  -7.7701085820119     -2.665E-15 2.331E-22 0.000E+00
 ETOT 31  -7.7701085820119      0.000E+00 9.992E-23 0.000E+00

 At SCF step   31   max residual=  9.99E-23 < tolwfr=  1.00E-22 =>converged.
================================================================================

 ----iterations are completed or convergence reached----

 Mean square residual over all n,k,spin=   48.194E-24; max=  99.919E-24
 dfpt_looppert : ek2=    1.3173242348E+01
          f-sum rule ratio=    1.0010486452E+00 (note : ecutsm/=0)
 prteigrs : about to open file NLO_3t_1WF1_EIG
 Expectation of eigenvalue derivatives (hartree) for nkpt=1024  k points:
  (in case of degenerate eigenvalues, averaged derivative)
 kpt#   1, nband=  4, wtk=  0.00098, kpt= -0.0625 -0.1250  0.0000 (reduced coord)
  -0.06892    0.51900    0.12774    0.08327
 prteigrs : prtvol=0 or 1, do not print more k-points.


 Eight components of 2nd-order total energy (hartree) are
 1,2,3: 0th-order hamiltonian combined with 1st-order wavefunctions
     kin0=   2.25717303E+01 eigvalue=   1.17491159E+00  local=  -1.86593432E+01
 4,5,6: 1st-order hamiltonian combined with 1st and 0th-order wfs
     kin1=  -1.31870564E+01  Hartree=   0.00000000E+00     xc=   0.00000000E+00
 7,8,9: eventually, occupation + non-local contributions
    edocc=   0.00000000E+00     enl0=   2.68280991E+00   enl1=  -2.35316076E+00
 1-9 gives the relaxation energy (to be shifted if some occ is /=2.0)
   erelax=  -7.77010858E+00
  No Ewald or frozen-wf contrib.: the relaxation energy is the total one
 2DEtotal=   -0.7770108582E+01 Ha. Also 2DEtotal=   -0.211435407259E+03 eV
    (  non-var. 2DEtotal :   -7.7701085820E+00 Ha)

--------------------------------------------------------------------------------
 Perturbation wavevector (in red.coord.)   0.000000  0.000000  0.000000
 Perturbation : derivative vs k along direction   3
 The set of symmetries contains only one element for this perturbation.
 symkpt : not enough symmetry to change the number of k points.

--------------------------------------------------------------------------------

-inwffil : will read wavefunctions from disk file NLO_3o_DS2_WFK
--------------------------------------------------------------------------------

 Initialisation of the first-order wave-functions :
  ireadwf=   0

--- !BeginCycle
iteration_state: {dtset: 3, }
solver: {iscf: 7, nstep: 100, nline: 4, wfoptalg: 0, }
tolerances: {tolwfr: 1.00E-22, }
...

     iter   2DEtotal(Ha)        deltaE(Ha) residm    vres2
-ETOT  1  -7.7002849844276     -7.700E+00 3.766E-01 0.000E+00
 ETOT  2  -7.7665772699881     -6.629E-02 2.318E-01 0.000E+00
 ETOT  3  -7.7696843335379     -3.107E-03 9.649E-03 0.000E+00
 ETOT  4  -7.7700410844293     -3.568E-04 5.210E-03 0.000E+00
 ETOT  5  -7.7700969588785     -5.587E-05 2.684E-04 0.000E+00
 ETOT  6  -7.7701065313495     -9.572E-06 1.595E-04 0.000E+00
 ETOT  7  -7.7701082169663     -1.686E-06 8.344E-06 0.000E+00
 ETOT  8  -7.7701085167201     -2.998E-07 5.127E-06 0.000E+00
 ETOT  9  -7.7701085702652     -5.355E-08 2.660E-07 0.000E+00
 ETOT 10  -7.7701085798524     -9.587E-09 1.665E-07 0.000E+00
 ETOT 11  -7.7701085815717     -1.719E-09 8.564E-09 0.000E+00
 ETOT 12  -7.7701085818803     -3.086E-10 5.415E-09 0.000E+00
 ETOT 13  -7.7701085819357     -5.544E-11 2.769E-10 0.000E+00
 ETOT 14  -7.7701085819457     -9.958E-12 1.761E-10 0.000E+00
 ETOT 15  -7.7701085819475     -1.792E-12 8.976E-12 0.000E+00
 ETOT 16  -7.7701085819478     -3.411E-13 5.723E-12 0.000E+00
 ETOT 17  -7.7701085819479     -4.086E-14 2.913E-13 0.000E+00
 ETOT 18  -7.7701085819479     -1.332E-14 1.859E-13 0.000E+00
 ETOT 19  -7.7701085819479     -1.865E-14 9.458E-15 0.000E+00
 ETOT 20  -7.7701085819479      2.132E-14 6.039E-15 0.000E+00
 ETOT 21  -7.7701085819479     -1.954E-14 3.072E-16 0.000E+00
 ETOT 22  -7.7701085819479      1.510E-14 1.961E-16 0.000E+00
 ETOT 23  -7.7701085819479     -1.776E-15 9.983E-18 0.000E+00
 ETOT 24  -7.7701085819479     -4.441E-15 6.369E-18 0.000E+00
 ETOT 25  -7.7701085819479      3.553E-15 3.244E-19 0.000E+00
 ETOT 26  -7.7701085819479      1.776E-15 2.068E-19 0.000E+00
 ETOT 27  -7.7701085819479      1.776E-15 1.054E-20 0.000E+00
 ETOT 28  -7.7701085819479     -2.665E-15 6.716E-21 0.000E+00
 ETOT 29  -7.7701085819479      0.000E+00 3.426E-22 0.000E+00
 ETOT 30  -7.7701085819479     -5.329E-15 2.181E-22 0.000E+00
 ETOT 31  -7.7701085819479      0.000E+00 9.992E-23 0.000E+00

 At SCF step   31   max residual=  9.99E-23 < tolwfr=  1.00E-22 =>converged.
================================================================================

 ----iterations are completed or convergence reached----

 Mean square residual over all n,k,spin=   48.209E-24; max=  99.919E-24
 dfpt_looppert : ek2=    1.3173242348E+01
          f-sum rule ratio=    1.0010486452E+00 (note : ecutsm/=0)
 prteigrs : about to open file NLO_3t_1WF1_EIG
 Expectation of eigenvalue derivatives (hartree) for nkpt=1024  k points:
  (in case of degenerate eigenvalues, averaged derivative)
 kpt#   1, nband=  4, wtk=  0.00098, kpt= -0.0625 -0.1250  0.0000 (reduced coord)
   0.04154   -0.25584   -0.12294   -0.13165
 prteigrs : prtvol=0 or 1, do not print more k-points.


 Eight components of 2nd-order total energy (hartree) are
 1,2,3: 0th-order hamiltonian combined with 1st-order wavefunctions
     kin0=   2.25717303E+01 eigvalue=   1.17491159E+00  local=  -1.86593432E+01
 4,5,6: 1st-order hamiltonian combined with 1st and 0th-order wfs
     kin1=  -1.31870564E+01  Hartree=   0.00000000E+00     xc=   0.00000000E+00
 7,8,9: eventually, occupation + non-local contributions
    edocc=   0.00000000E+00     enl0=   2.68280991E+00   enl1=  -2.35316076E+00
 1-9 gives the relaxation energy (to be shifted if some occ is /=2.0)
   erelax=  -7.77010858E+00
  No Ewald or frozen-wf contrib.: the relaxation energy is the total one
 2DEtotal=   -0.7770108582E+01 Ha. Also 2DEtotal=   -0.211435407257E+03 eV
    (  non-var. 2DEtotal :   -7.7701085819E+00 Ha)
================================================================================

 ---- first-order wavefunction calculations are completed ----


 Total localisation tensor (bohr^2) in cartesian coordinates
  WARNING : still subject to testing - especially symmetries.
      direction              matrix element
   alpha     beta       real part   imaginary part
     1        1       5.5521272194   -0.0000000000
     1        2       2.7760636097   -0.0000000000
     1        3       2.7760636097    0.0000000000
     2        1       2.7760636097   -0.0000000000
     2        2       5.5521272194   -0.0000000000
     2        3       2.7760636097    0.0000000000
     3        1       2.7760636097    0.0000000000
     3        2       2.7760636097    0.0000000000
     3        3       5.5521272195    0.0000000000

 respfn : d/dk was computed, but no 2DTE, so no DDB output.

================================================================================
== DATASET  4 ==================================================================
-   mpi_nproc: 4, omp_nthreads: 8 (-1 if OMP is not activated)


--- !DatasetInfo
iteration_state: {dtset: 4, }
dimensions: {natom: 2, nkpt: 1024, mband: 4, nsppol: 1, nspinor: 1, nspden: 1, mpw: 3000, }
cutoff_energies: {ecut:  25.0, pawecutdg:  -1.0, }
electrons: {nelect:   8.00000000E+00, charge:   0.00000000E+00, occopt:   1.00000000E+00, tsmear:   1.00000000E-02, }
meta: {optdriver: 1, rfstrs: 3, }
...

 mkfilename : getwfk/=0, take file _WFK from output of DATASET   2.

 mkfilename : getddk/=0, take file _1WF from output of DATASET   3.

 Exchange-correlation functional for the present dataset will be:
  LDA: old Teter (4/91) fit to Ceperley-Alder data - ixc=3

 Real(R)+Recip(G) space primitive vectors, cartesian coordinates (Bohr,Bohr^-1):
 R(1)=  0.0000000  5.9968633  5.9968633  G(1)= -0.0833769  0.0833769  0.0833769
 R(2)=  5.9968633  0.0000000  5.9968633  G(2)=  0.0833769 -0.0833769  0.0833769
 R(3)=  5.9968633  5.9968633  0.0000000  G(3)=  0.0833769  0.0833769 -0.0833769
 Unit cell volume ucvol=  4.3132283E+02 bohr^3
 Angles (23,13,12)=  6.00000000E+01  6.00000000E+01  6.00000000E+01 degrees

 getcut: wavevector=  0.0000  0.0000  0.0000  ngfft=  45  45  45
         ecut(hartree)=     27.563   => boxcut(ratio)=   2.19528
--------------------------------------------------------------------------------

-inwffil : will read wavefunctions from disk file NLO_3o_DS2_WFK
 symkchk : k-point set has full space-group symmetry.

 ==>  initialize data related to q vector <== 

 The list of irreducible perturbations for this q vector is:
    1)    idir= 1    ipert=   5
    2)    idir= 2    ipert=   5
    3)    idir= 3    ipert=   5
    4)    idir= 1    ipert=   6
    5)    idir= 2    ipert=   6
    6)    idir= 3    ipert=   6

================================================================================

--------------------------------------------------------------------------------
 Perturbation wavevector (in red.coord.)   0.000000  0.000000  0.000000
 Found     8 symmetries that leave the perturbation invariant.
 symkpt : the number of k-points, thanks to the symmetries,
 is reduced to   144 .

--------------------------------------------------------------------------------

-inwffil : will read wavefunctions from disk file NLO_3o_DS2_WFK
--------------------------------------------------------------------------------

 Initialisation of the first-order wave-functions :
  ireadwf=   0

--- !BeginCycle
iteration_state: {dtset: 4, }
solver: {iscf: 7, nstep: 100, nline: 4, wfoptalg: 0, }
tolerances: {toldfe: 1.00E-12, }
...

     iter   2DEtotal(Ha)        deltaE(Ha) residm    vres2
-ETOT  1   1.5066737150622     -5.320E+00 1.066E+00 2.395E+03
 ETOT  2   1.0649977859014     -4.417E-01 6.968E-03 1.044E+02
 ETOT  3   1.0534936396546     -1.150E-02 1.417E-03 1.234E+01
 ETOT  4   1.0521322869171     -1.361E-03 1.223E-04 2.859E-01
 ETOT  5   1.0521002069913     -3.208E-05 2.986E-05 1.880E-03
 ETOT  6   1.0520990133631     -1.194E-06 3.305E-06 1.058E-04
 ETOT  7   1.0520988176933     -1.957E-07 9.279E-07 5.344E-06
 ETOT  8   1.0520987863483     -3.135E-08 1.036E-07 1.670E-07
 ETOT  9   1.0520987807703     -5.578E-09 2.955E-08 2.630E-08
 ETOT 10   1.0520987797492     -1.021E-09 3.274E-09 3.054E-09
 ETOT 11   1.0520987795627     -1.865E-10 9.582E-10 1.967E-10
 ETOT 12   1.0520987795288     -3.396E-11 1.046E-10 1.061E-10
 ETOT 13   1.0520987795225     -6.244E-12 3.137E-11 1.546E-12
 ETOT 14   1.0520987795214     -1.123E-12 3.346E-12 6.074E-12
 ETOT 15   1.0520987795212     -2.078E-13 1.077E-12 1.014E-12
 ETOT 16   1.0520987795211     -4.619E-14 1.080E-13 6.391E-14

 At SCF step   16, etot is converged : 
  for the second time, diff in etot=  4.619E-14 < toldfe=  1.000E-12
-open ddk wf file :NLO_3o_DS3_1WF7
-open ddk wf file :NLO_3o_DS3_1WF8
-open ddk wf file :NLO_3o_DS3_1WF9
================================================================================

 ----iterations are completed or convergence reached----

 Mean square residual over all n,k,spin=   37.392E-17; max=  10.799E-14

 Seventeen components of 2nd-order total energy (hartree) are
 1,2,3: 0th-order hamiltonian combined with 1st-order wavefunctions
     kin0=   6.77105345E+00 eigvalue=   9.11355709E-01  local=  -3.29053726E+00
 4,5,6,7: 1st-order hamiltonian combined with 1st and 0th-order wfs
 loc psp =  -2.35770688E+00  Hartree=   8.02259028E-01     xc=  -5.75096651E-01
     kin1=  -4.87957059E+00
 8,9,10: eventually, occupation + non-local contributions
    edocc=   0.00000000E+00     enl0=   8.84273630E-01   enl1=  -4.04017067E+00
 1-10 gives the relaxation energy (to be shifted if some occ is /=2.0)
   erelax=  -5.77414024E+00
 11,12,13 Non-relaxation  contributions : frozen-wavefunctions and Ewald
  fr.hart=  -3.81493909E-01   fr.kin=   3.43420286E+00 fr.loc=   3.62813636E+00
 14,15,16 Non-relaxation  contributions : frozen-wavefunctions and Ewald
  fr.nonl=   2.29316984E+00    fr.xc=  -2.02045247E-01  Ewald=  -2.86945085E+00
 17 Non-relaxation  contributions : pseudopotential core energy
  pspcore=   9.23719962E-01
 Resulting in :
 2DEtotal=    0.1052098780E+01 Ha. Also 2DEtotal=    0.286290637482E+02 eV
    (2DErelax=   -5.7741402367E+00 Ha. 2DEnonrelax=    6.8262390163E+00 Ha)
    (  non-var. 2DEtotal :    1.0520987816E+00 Ha)


--------------------------------------------------------------------------------
 Perturbation wavevector (in red.coord.)   0.000000  0.000000  0.000000
 Found     8 symmetries that leave the perturbation invariant.
 symkpt : the number of k-points, thanks to the symmetries,
 is reduced to   144 .

--------------------------------------------------------------------------------

-inwffil : will read wavefunctions from disk file NLO_3o_DS2_WFK
--------------------------------------------------------------------------------

 Initialisation of the first-order wave-functions :
  ireadwf=   0

--- !BeginCycle
iteration_state: {dtset: 4, }
solver: {iscf: 7, nstep: 100, nline: 4, wfoptalg: 0, }
tolerances: {toldfe: 1.00E-12, }
...

     iter   2DEtotal(Ha)        deltaE(Ha) residm    vres2
-ETOT  1   1.5065858973040     -5.320E+00 1.066E+00 2.395E+03
 ETOT  2   1.0649629148495     -4.416E-01 1.057E-02 1.044E+02
 ETOT  3   1.0534873604147     -1.148E-02 1.280E-03 1.234E+01
 ETOT  4   1.0521307650772     -1.357E-03 1.646E-04 2.855E-01
 ETOT  5   1.0520998805180     -3.088E-05 2.925E-05 1.806E-03
 ETOT  6   1.0520989437366     -9.368E-07 3.815E-06 7.986E-05
 ETOT  7   1.0520988053318     -1.384E-07 8.385E-07 5.235E-06
 ETOT  8   1.0520987841415     -2.119E-08 1.071E-07 1.784E-07
 ETOT  9   1.0520987805836     -3.558E-09 2.461E-08 1.422E-08
 ETOT 10   1.0520987799651     -6.185E-10 3.051E-09 2.388E-09
 ETOT 11   1.0520987798569     -1.081E-10 7.306E-10 4.092E-11
 ETOT 12   1.0520987798382     -1.874E-11 8.768E-11 6.011E-11
 ETOT 13   1.0520987798349     -3.285E-12 2.156E-11 7.225E-13
 ETOT 14   1.0520987798343     -5.667E-13 2.532E-12 4.716E-13
 ETOT 15   1.0520987798342     -1.075E-13 6.382E-13 1.340E-13

 At SCF step   15, etot is converged : 
  for the second time, diff in etot=  1.075E-13 < toldfe=  1.000E-12
-open ddk wf file :NLO_3o_DS3_1WF7
-open ddk wf file :NLO_3o_DS3_1WF8
-open ddk wf file :NLO_3o_DS3_1WF9
================================================================================

 ----iterations are completed or convergence reached----

 Mean square residual over all n,k,spin=   16.193E-16; max=  63.819E-14

 Seventeen components of 2nd-order total energy (hartree) are
 1,2,3: 0th-order hamiltonian combined with 1st-order wavefunctions
     kin0=   6.77105340E+00 eigvalue=   9.11355707E-01  local=  -3.29053722E+00
 4,5,6,7: 1st-order hamiltonian combined with 1st and 0th-order wfs
 loc psp =  -2.35770688E+00  Hartree=   8.02259026E-01     xc=  -5.75096650E-01
     kin1=  -4.87957058E+00
 8,9,10: eventually, occupation + non-local contributions
    edocc=   0.00000000E+00     enl0=   8.84273625E-01   enl1=  -4.04017067E+00
 1-10 gives the relaxation energy (to be shifted if some occ is /=2.0)
   erelax=  -5.77414024E+00
 11,12,13 Non-relaxation  contributions : frozen-wavefunctions and Ewald
  fr.hart=  -3.81493909E-01   fr.kin=   3.43420286E+00 fr.loc=   3.62813636E+00
 14,15,16 Non-relaxation  contributions : frozen-wavefunctions and Ewald
  fr.nonl=   2.29316984E+00    fr.xc=  -2.02045247E-01  Ewald=  -2.86945085E+00
 17 Non-relaxation  contributions : pseudopotential core energy
  pspcore=   9.23719962E-01
 Resulting in :
 2DEtotal=    0.1052098780E+01 Ha. Also 2DEtotal=    0.286290637567E+02 eV
    (2DErelax=   -5.7741402361E+00 Ha. 2DEnonrelax=    6.8262390159E+00 Ha)
    (  non-var. 2DEtotal :    1.0520987865E+00 Ha)


--------------------------------------------------------------------------------
 Perturbation wavevector (in red.coord.)   0.000000  0.000000  0.000000
 Found     8 symmetries that leave the perturbation invariant.
 symkpt : the number of k-points, thanks to the symmetries,
 is reduced to   144 .

--------------------------------------------------------------------------------

-inwffil : will read wavefunctions from disk file NLO_3o_DS2_WFK
--------------------------------------------------------------------------------

 Initialisation of the first-order wave-functions :
  ireadwf=   0

--- !BeginCycle
iteration_state: {dtset: 4, }
solver: {iscf: 7, nstep: 100, nline: 4, wfoptalg: 0, }
tolerances: {toldfe: 1.00E-12, }
...

     iter   2DEtotal(Ha)        deltaE(Ha) residm    vres2
-ETOT  1   1.5064960724883     -5.320E+00 1.066E+00 2.395E+03
 ETOT  2   1.0649357032308     -4.416E-01 1.232E-02 1.044E+02
 ETOT  3   1.0534839522327     -1.145E-02 1.211E-03 1.234E+01
 ETOT  4   1.0521300062350     -1.354E-03 1.624E-04 2.850E-01
 ETOT  5   1.0520997321250     -3.027E-05 2.784E-05 1.755E-03
 ETOT  6   1.0520989124531     -8.197E-07 3.689E-06 6.081E-05
 ETOT  7   1.0520988003836     -1.121E-07 7.667E-07 5.065E-06
 ETOT  8   1.0520987833619     -1.702E-08 1.004E-07 1.848E-07
 ETOT  9   1.0520987806197     -2.742E-09 2.171E-08 8.337E-09
 ETOT 10   1.0520987801608     -4.589E-10 2.757E-09 1.125E-09
 ETOT 11   1.0520987800834     -7.736E-11 6.197E-10 1.715E-11
 ETOT 12   1.0520987800705     -1.294E-11 7.601E-11 2.115E-11
 ETOT 13   1.0520987800683     -2.166E-12 1.757E-11 4.173E-13
 ETOT 14   1.0520987800679     -3.695E-13 2.105E-12 1.036E-13
 ETOT 15   1.0520987800679     -5.951E-14 4.978E-13 1.707E-14

 At SCF step   15, etot is converged : 
  for the second time, diff in etot=  5.951E-14 < toldfe=  1.000E-12
-open ddk wf file :NLO_3o_DS3_1WF7
-open ddk wf file :NLO_3o_DS3_1WF8
-open ddk wf file :NLO_3o_DS3_1WF9
================================================================================

 ----iterations are completed or convergence reached----

 Mean square residual over all n,k,spin=   88.855E-17; max=  49.777E-14

 Seventeen components of 2nd-order total energy (hartree) are
 1,2,3: 0th-order hamiltonian combined with 1st-order wavefunctions
     kin0=   6.77105343E+00 eigvalue=   9.11355708E-01  local=  -3.29053724E+00
 4,5,6,7: 1st-order hamiltonian combined with 1st and 0th-order wfs
 loc psp =  -2.35770688E+00  Hartree=   8.02259029E-01     xc=  -5.75096651E-01
     kin1=  -4.87957058E+00
 8,9,10: eventually, occupation + non-local contributions
    edocc=   0.00000000E+00     enl0=   8.84273628E-01   enl1=  -4.04017067E+00
 1-10 gives the relaxation energy (to be shifted if some occ is /=2.0)
   erelax=  -5.77414024E+00
 11,12,13 Non-relaxation  contributions : frozen-wavefunctions and Ewald
  fr.hart=  -3.81493909E-01   fr.kin=   3.43420286E+00 fr.loc=   3.62813636E+00
 14,15,16 Non-relaxation  contributions : frozen-wavefunctions and Ewald
  fr.nonl=   2.29316984E+00    fr.xc=  -2.02045247E-01  Ewald=  -2.86945085E+00
 17 Non-relaxation  contributions : pseudopotential core energy
  pspcore=   9.23719962E-01
 Resulting in :
 2DEtotal=    0.1052098780E+01 Ha. Also 2DEtotal=    0.286290637631E+02 eV
    (2DErelax=   -5.7741402355E+00 Ha. 2DEnonrelax=    6.8262390156E+00 Ha)
    (  non-var. 2DEtotal :    1.0520987821E+00 Ha)


--------------------------------------------------------------------------------
 Perturbation wavevector (in red.coord.)   0.000000  0.000000  0.000000
 Found     4 symmetries that leave the perturbation invariant.
 symkpt : the number of k-points, thanks to the symmetries,
 is reduced to   288 .

--------------------------------------------------------------------------------

-inwffil : will read wavefunctions from disk file NLO_3o_DS2_WFK
--------------------------------------------------------------------------------

 Initialisation of the first-order wave-functions :
  ireadwf=   0

--- !BeginCycle
iteration_state: {dtset: 4, }
solver: {iscf: 7, nstep: 100, nline: 4, wfoptalg: 0, }
tolerances: {toldfe: 1.00E-12, }
...

     iter   2DEtotal(Ha)        deltaE(Ha) residm    vres2
-ETOT  1   1.2103467548758     -3.315E+00 5.555E-01 2.806E+03
 ETOT  2  0.77033234046598     -4.400E-01 7.880E-03 1.689E+02
 ETOT  3  0.74804392820705     -2.229E-02 8.399E-04 4.666E+00
 ETOT  4  0.74755127624984     -4.927E-04 1.194E-04 8.812E-02
 ETOT  5  0.74754053173002     -1.074E-05 1.280E-05 1.045E-03
 ETOT  6  0.74754000075323     -5.310E-07 2.660E-06 1.944E-05
 ETOT  7  0.74753993172413     -6.903E-08 3.235E-07 6.658E-07
 ETOT  8  0.74753992029767     -1.143E-08 7.777E-08 2.453E-08
 ETOT  9  0.74753991833770     -1.960E-09 9.323E-09 8.246E-10
 ETOT 10  0.74753991799767     -3.400E-10 2.402E-09 4.996E-10
 ETOT 11  0.74753991793819     -5.948E-11 2.714E-10 2.258E-11
 ETOT 12  0.74753991792779     -1.040E-11 7.578E-11 1.168E-11
 ETOT 13  0.74753991792596     -1.833E-12 7.964E-12 1.121E-12
 ETOT 14  0.74753991792565     -3.078E-13 2.418E-12 2.357E-13
 ETOT 15  0.74753991792559     -6.661E-14 2.362E-13 1.008E-13

 At SCF step   15, etot is converged : 
  for the second time, diff in etot=  6.661E-14 < toldfe=  1.000E-12
-open ddk wf file :NLO_3o_DS3_1WF7
-open ddk wf file :NLO_3o_DS3_1WF8
-open ddk wf file :NLO_3o_DS3_1WF9
================================================================================

 ----iterations are completed or convergence reached----

 Mean square residual over all n,k,spin=   48.306E-17; max=  23.620E-14

 Seventeen components of 2nd-order total energy (hartree) are
 1,2,3: 0th-order hamiltonian combined with 1st-order wavefunctions
     kin0=   4.43760745E+00 eigvalue=   5.67436175E-01  local=  -2.07104933E+00
 4,5,6,7: 1st-order hamiltonian combined with 1st and 0th-order wfs
 loc psp =  -5.21985301E+00  Hartree=   2.26889895E+00     xc=  -4.24107651E-01
     kin1=  -2.75875624E+00
 8,9,10: eventually, occupation + non-local contributions
    edocc=   0.00000000E+00     enl0=   2.20691527E-01   enl1=  -7.98689059E-01
 1-10 gives the relaxation energy (to be shifted if some occ is /=2.0)
   erelax=  -3.77782119E+00
 11,12,13 Non-relaxation  contributions : frozen-wavefunctions and Ewald
  fr.hart=   8.72843383E-02   fr.kin=   1.71024777E+00 fr.loc=  -4.67166054E-01
 14,15,16 Non-relaxation  contributions : frozen-wavefunctions and Ewald
  fr.nonl=   5.10009136E-01    fr.xc=   0.00000000E+00  Ewald=   2.68498591E+00
 17 Non-relaxation  contributions : pseudopotential core energy
  pspcore=   0.00000000E+00
 Resulting in :
 2DEtotal=    0.7475399179E+00 Ha. Also 2DEtotal=    0.203415956573E+02 eV
    (2DErelax=   -3.7778211861E+00 Ha. 2DEnonrelax=    4.5253611040E+00 Ha)
    (  non-var. 2DEtotal :    7.4753991976E-01 Ha)


--------------------------------------------------------------------------------
 Perturbation wavevector (in red.coord.)   0.000000  0.000000  0.000000
 Found     4 symmetries that leave the perturbation invariant.
 symkpt : the number of k-points, thanks to the symmetries,
 is reduced to   288 .

--------------------------------------------------------------------------------

-inwffil : will read wavefunctions from disk file NLO_3o_DS2_WFK
--------------------------------------------------------------------------------

 Initialisation of the first-order wave-functions :
  ireadwf=   0

--- !BeginCycle
iteration_state: {dtset: 4, }
solver: {iscf: 7, nstep: 100, nline: 4, wfoptalg: 0, }
tolerances: {toldfe: 1.00E-12, }
...

     iter   2DEtotal(Ha)        deltaE(Ha) residm    vres2
-ETOT  1   1.2104476587561     -3.315E+00 5.555E-01 2.806E+03
 ETOT  2  0.77033836736406     -4.401E-01 7.377E-03 1.689E+02
 ETOT  3  0.74804499177234     -2.229E-02 8.158E-04 4.669E+00
 ETOT  4  0.74755136396655     -4.936E-04 1.181E-04 8.826E-02
 ETOT  5  0.74754054217526     -1.082E-05 1.335E-05 1.043E-03
 ETOT  6  0.74754000249602     -5.397E-07 2.635E-06 1.933E-05
 ETOT  7  0.74753993195765     -7.054E-08 3.252E-07 6.406E-07
 ETOT  8  0.74753992028540     -1.167E-08 7.742E-08 2.763E-08
 ETOT  9  0.74753991828731     -1.998E-09 8.996E-09 8.622E-10
 ETOT 10  0.74753991794225     -3.451E-10 2.400E-09 5.558E-10
 ETOT 11  0.74753991788223     -6.003E-11 2.512E-10 1.049E-11
 ETOT 12  0.74753991787177     -1.046E-11 7.627E-11 1.408E-11
 ETOT 13  0.74753991786994     -1.832E-12 7.130E-12 1.565E-13
 ETOT 14  0.74753991786962     -3.202E-13 2.462E-12 2.094E-13
 ETOT 15  0.74753991786956     -5.418E-14 2.334E-13 3.717E-15

 At SCF step   15, etot is converged : 
  for the second time, diff in etot=  5.418E-14 < toldfe=  1.000E-12
-open ddk wf file :NLO_3o_DS3_1WF7
-open ddk wf file :NLO_3o_DS3_1WF8
-open ddk wf file :NLO_3o_DS3_1WF9
================================================================================

 ----iterations are completed or convergence reached----

 Mean square residual over all n,k,spin=   54.860E-17; max=  23.336E-14

 Seventeen components of 2nd-order total energy (hartree) are
 1,2,3: 0th-order hamiltonian combined with 1st-order wavefunctions
     kin0=   4.43760746E+00 eigvalue=   5.67436175E-01  local=  -2.07104933E+00
 4,5,6,7: 1st-order hamiltonian combined with 1st and 0th-order wfs
 loc psp =  -5.21985301E+00  Hartree=   2.26889895E+00     xc=  -4.24107651E-01
     kin1=  -2.75875625E+00
 8,9,10: eventually, occupation + non-local contributions
    edocc=   0.00000000E+00     enl0=   2.20691527E-01   enl1=  -7.98689059E-01
 1-10 gives the relaxation energy (to be shifted if some occ is /=2.0)
   erelax=  -3.77782119E+00
 11,12,13 Non-relaxation  contributions : frozen-wavefunctions and Ewald
  fr.hart=   8.72843383E-02   fr.kin=   1.71024777E+00 fr.loc=  -4.67166054E-01
 14,15,16 Non-relaxation  contributions : frozen-wavefunctions and Ewald
  fr.nonl=   5.10009136E-01    fr.xc=   0.00000000E+00  Ewald=   2.68498591E+00
 17 Non-relaxation  contributions : pseudopotential core energy
  pspcore=   0.00000000E+00
 Resulting in :
 2DEtotal=    0.7475399179E+00 Ha. Also 2DEtotal=    0.203415956558E+02 eV
    (2DErelax=   -3.7778211862E+00 Ha. 2DEnonrelax=    4.5253611041E+00 Ha)
    (  non-var. 2DEtotal :    7.4753991753E-01 Ha)


--------------------------------------------------------------------------------
 Perturbation wavevector (in red.coord.)   0.000000  0.000000  0.000000
 Found     4 symmetries that leave the perturbation invariant.
 symkpt : the number of k-points, thanks to the symmetries,
 is reduced to   288 .

--------------------------------------------------------------------------------

-inwffil : will read wavefunctions from disk file NLO_3o_DS2_WFK
--------------------------------------------------------------------------------

 Initialisation of the first-order wave-functions :
  ireadwf=   0

--- !BeginCycle
iteration_state: {dtset: 4, }
solver: {iscf: 7, nstep: 100, nline: 4, wfoptalg: 0, }
tolerances: {toldfe: 1.00E-12, }
...

     iter   2DEtotal(Ha)        deltaE(Ha) residm    vres2
-ETOT  1   1.2101230393722     -3.315E+00 5.555E-01 2.806E+03
 ETOT  2  0.77031335633902     -4.398E-01 8.251E-03 1.690E+02
 ETOT  3  0.74803908006866     -2.227E-02 8.530E-04 4.657E+00
 ETOT  4  0.74755073660582     -4.883E-04 1.205E-04 8.778E-02
 ETOT  5  0.74754047006817     -1.027E-05 7.861E-06 1.043E-03
 ETOT  6  0.74753999294132     -4.771E-07 2.670E-06 1.869E-05
 ETOT  7  0.74753993074545     -6.220E-08 2.028E-07 5.788E-07
 ETOT  8  0.74753992014762     -1.060E-08 7.725E-08 7.754E-09
 ETOT  9  0.74753991826748     -1.880E-09 6.186E-09 5.083E-10
 ETOT 10  0.74753991793010     -3.374E-10 2.383E-09 3.055E-10
 ETOT 11  0.74753991786933     -6.077E-11 1.958E-10 4.692E-11
 ETOT 12  0.74753991785836     -1.096E-11 7.507E-11 6.574E-12
 ETOT 13  0.74753991785640     -1.961E-12 6.313E-12 4.772E-12
 ETOT 14  0.74753991785604     -3.610E-13 2.393E-12 1.071E-12
 ETOT 15  0.74753991785597     -7.372E-14 2.026E-13 3.003E-14

 At SCF step   15, etot is converged : 
  for the second time, diff in etot=  7.372E-14 < toldfe=  1.000E-12
-open ddk wf file :NLO_3o_DS3_1WF7
-open ddk wf file :NLO_3o_DS3_1WF8
-open ddk wf file :NLO_3o_DS3_1WF9
================================================================================

 ----iterations are completed or convergence reached----

 Mean square residual over all n,k,spin=   39.670E-17; max=  20.263E-14

 Seventeen components of 2nd-order total energy (hartree) are
 1,2,3: 0th-order hamiltonian combined with 1st-order wavefunctions
     kin0=   4.43760744E+00 eigvalue=   5.67436176E-01  local=  -2.07104932E+00
 4,5,6,7: 1st-order hamiltonian combined with 1st and 0th-order wfs
 loc psp =  -5.21985301E+00  Hartree=   2.26889896E+00     xc=  -4.24107651E-01
     kin1=  -2.75875624E+00
 8,9,10: eventually, occupation + non-local contributions
    edocc=   0.00000000E+00     enl0=   2.20691526E-01   enl1=  -7.98689059E-01
 1-10 gives the relaxation energy (to be shifted if some occ is /=2.0)
   erelax=  -3.77782119E+00
 11,12,13 Non-relaxation  contributions : frozen-wavefunctions and Ewald
  fr.hart=   8.72843383E-02   fr.kin=   1.71024777E+00 fr.loc=  -4.67166054E-01
 14,15,16 Non-relaxation  contributions : frozen-wavefunctions and Ewald
  fr.nonl=   5.10009136E-01    fr.xc=   0.00000000E+00  Ewald=   2.68498591E+00
 17 Non-relaxation  contributions : pseudopotential core energy
[...]
                      -1.25000000E-01 -1.87500000E-01  0.00000000E+00
                      -6.25000000E-02 -1.87500000E-01  6.25000000E-02
                      -1.87500000E-01 -1.25000000E-01  0.00000000E+00
                      -1.25000000E-01 -1.25000000E-01  6.25000000E-02
                      -6.25000000E-02 -1.25000000E-01  1.25000000E-01
                      -2.50000000E-01 -6.25000000E-02  0.00000000E+00
                      -1.87500000E-01 -6.25000000E-02  6.25000000E-02
                      -1.25000000E-01 -6.25000000E-02  1.25000000E-01
                      -6.25000000E-02 -6.25000000E-02  1.87500000E-01
                      -6.25000000E-02 -3.75000000E-01  0.00000000E+00
                      -1.25000000E-01 -3.12500000E-01  0.00000000E+00
                      -6.25000000E-02 -3.12500000E-01  6.25000000E-02
                      -1.87500000E-01 -2.50000000E-01  0.00000000E+00
                      -1.25000000E-01 -2.50000000E-01  6.25000000E-02
                      -6.25000000E-02 -2.50000000E-01  1.25000000E-01
                      -2.50000000E-01 -1.87500000E-01  0.00000000E+00
                      -1.87500000E-01 -1.87500000E-01  6.25000000E-02
                      -1.25000000E-01 -1.87500000E-01  1.25000000E-01
                      -6.25000000E-02 -1.87500000E-01  1.87500000E-01
                      -3.12500000E-01 -1.25000000E-01  0.00000000E+00
                      -2.50000000E-01 -1.25000000E-01  6.25000000E-02
                      -1.87500000E-01 -1.25000000E-01  1.25000000E-01
                      -1.25000000E-01 -1.25000000E-01  1.87500000E-01
                      -6.25000000E-02 -1.25000000E-01  2.50000000E-01
                      -3.75000000E-01 -6.25000000E-02  0.00000000E+00
                      -3.12500000E-01 -6.25000000E-02  6.25000000E-02
                      -2.50000000E-01 -6.25000000E-02  1.25000000E-01
                      -1.87500000E-01 -6.25000000E-02  1.87500000E-01
                      -1.25000000E-01 -6.25000000E-02  2.50000000E-01
                      -6.25000000E-02 -6.25000000E-02  3.12500000E-01
                      -6.25000000E-02  5.00000000E-01  0.00000000E+00
                      -1.25000000E-01 -4.37500000E-01  0.00000000E+00
                      -6.25000000E-02 -4.37500000E-01  6.25000000E-02
                      -1.87500000E-01 -3.75000000E-01  0.00000000E+00
                      -1.25000000E-01 -3.75000000E-01  6.25000000E-02
                      -6.25000000E-02 -3.75000000E-01  1.25000000E-01
                      -2.50000000E-01 -3.12500000E-01  0.00000000E+00
                      -1.87500000E-01 -3.12500000E-01  6.25000000E-02
                      -1.25000000E-01 -3.12500000E-01  1.25000000E-01
                      -6.25000000E-02 -3.12500000E-01  1.87500000E-01
                      -3.12500000E-01 -2.50000000E-01  0.00000000E+00
                      -2.50000000E-01 -2.50000000E-01  6.25000000E-02
                      -1.87500000E-01 -2.50000000E-01  1.25000000E-01
                      -1.25000000E-01 -2.50000000E-01  1.87500000E-01
                      -6.25000000E-02 -2.50000000E-01  2.50000000E-01
                      -3.75000000E-01 -1.87500000E-01  0.00000000E+00
              kpt4    -6.25000000E-02 -1.25000000E-01  0.00000000E+00
                      -1.25000000E-01 -6.25000000E-02  0.00000000E+00
                      -6.25000000E-02 -6.25000000E-02  6.25000000E-02
                      -6.25000000E-02 -2.50000000E-01  0.00000000E+00
                      -1.25000000E-01 -1.87500000E-01  0.00000000E+00
                      -6.25000000E-02 -1.87500000E-01  6.25000000E-02
                      -1.87500000E-01 -1.25000000E-01  0.00000000E+00
                      -1.25000000E-01 -1.25000000E-01  6.25000000E-02
                      -6.25000000E-02 -1.25000000E-01  1.25000000E-01
                      -2.50000000E-01 -6.25000000E-02  0.00000000E+00
                      -1.87500000E-01 -6.25000000E-02  6.25000000E-02
                      -1.25000000E-01 -6.25000000E-02  1.25000000E-01
                      -6.25000000E-02 -6.25000000E-02  1.87500000E-01
                      -6.25000000E-02 -3.75000000E-01  0.00000000E+00
                      -1.25000000E-01 -3.12500000E-01  0.00000000E+00
                      -6.25000000E-02 -3.12500000E-01  6.25000000E-02
                      -1.87500000E-01 -2.50000000E-01  0.00000000E+00
                      -1.25000000E-01 -2.50000000E-01  6.25000000E-02
                      -6.25000000E-02 -2.50000000E-01  1.25000000E-01
                      -2.50000000E-01 -1.87500000E-01  0.00000000E+00
                      -1.87500000E-01 -1.87500000E-01  6.25000000E-02
                      -1.25000000E-01 -1.87500000E-01  1.25000000E-01
                      -6.25000000E-02 -1.87500000E-01  1.87500000E-01
                      -3.12500000E-01 -1.25000000E-01  0.00000000E+00
                      -2.50000000E-01 -1.25000000E-01  6.25000000E-02
                      -1.87500000E-01 -1.25000000E-01  1.25000000E-01
                      -1.25000000E-01 -1.25000000E-01  1.87500000E-01
                      -6.25000000E-02 -1.25000000E-01  2.50000000E-01
                      -3.75000000E-01 -6.25000000E-02  0.00000000E+00
                      -3.12500000E-01 -6.25000000E-02  6.25000000E-02
                      -2.50000000E-01 -6.25000000E-02  1.25000000E-01
                      -1.87500000E-01 -6.25000000E-02  1.87500000E-01
                      -1.25000000E-01 -6.25000000E-02  2.50000000E-01
                      -6.25000000E-02 -6.25000000E-02  3.12500000E-01
                      -6.25000000E-02  5.00000000E-01  0.00000000E+00
                      -1.25000000E-01 -4.37500000E-01  0.00000000E+00
                      -6.25000000E-02 -4.37500000E-01  6.25000000E-02
                      -1.87500000E-01 -3.75000000E-01  0.00000000E+00
                      -1.25000000E-01 -3.75000000E-01  6.25000000E-02
                      -6.25000000E-02 -3.75000000E-01  1.25000000E-01
                      -2.50000000E-01 -3.12500000E-01  0.00000000E+00
                      -1.87500000E-01 -3.12500000E-01  6.25000000E-02
                      -1.25000000E-01 -3.12500000E-01  1.25000000E-01
                      -6.25000000E-02 -3.12500000E-01  1.87500000E-01
                      -3.12500000E-01 -2.50000000E-01  0.00000000E+00
                      -2.50000000E-01 -2.50000000E-01  6.25000000E-02
                      -1.87500000E-01 -2.50000000E-01  1.25000000E-01
                      -1.25000000E-01 -2.50000000E-01  1.87500000E-01
                      -6.25000000E-02 -2.50000000E-01  2.50000000E-01
                      -3.75000000E-01 -1.87500000E-01  0.00000000E+00
                       outvar_i_n : Printing only first  50 k-points.
           kptopt1          1
           kptopt2          2
           kptopt3          2
           kptopt4          2
         kptrlatt        8   -8    8     -8    8    8     -8   -8    8
          kptrlen      9.59498131E+01
P           mkmem1         15
P           mkmem2        256
P           mkmem3        256
P           mkmem4        256
P          mkqmem1         15
P          mkqmem2        256
P          mkqmem3        256
P          mkqmem4        256
P          mk1mem1         15
P          mk1mem2        256
P          mk1mem3        256
P          mk1mem4        256
            natom           2
            nband1          5
            nband2          4
            nband3          4
            nband4          4
           ndtset           4
            ngfft          45      45      45
             nkpt1         60
             nkpt2       1024
             nkpt3       1024
             nkpt4       1024
            nstep         100
             nsym          24
           ntypat           2
              occ1     2.000000  2.000000  2.000000  2.000000  0.000000
              occ3     2.000000  2.000000  2.000000  2.000000
              occ4     2.000000  2.000000  2.000000  2.000000
        optdriver1          0
        optdriver2          0
        optdriver3          1
        optdriver4          1
            rfdir1          0       0       0
            rfdir2          0       0       0
            rfdir3          1       1       1
            rfdir4          1       1       1
           rfelfd1          0
           rfelfd2          0
           rfelfd3          2
           rfelfd4          0
           rfstrs1          0
           rfstrs2          0
           rfstrs3          0
           rfstrs4          3
            rprim      0.0000000000E+00  5.0000000000E-01  5.0000000000E-01
                       5.0000000000E-01  0.0000000000E+00  5.0000000000E-01
                       5.0000000000E-01  5.0000000000E-01  0.0000000000E+00
           shiftk      5.00000000E-01  5.00000000E-01  5.00000000E-01
          spgroup         216
           strten1     8.7185680667E-07  8.7185680667E-07  8.7185680667E-07
                       0.0000000000E+00  0.0000000000E+00  0.0000000000E+00
           strten3     0.0000000000E+00  0.0000000000E+00  0.0000000000E+00
                       0.0000000000E+00  0.0000000000E+00  0.0000000000E+00
           strten4     0.0000000000E+00  0.0000000000E+00  0.0000000000E+00
                       0.0000000000E+00  0.0000000000E+00  0.0000000000E+00
           symrel      1  0  0   0  1  0   0  0  1       0 -1  1   0 -1  0   1 -1  0
                      -1  0  0  -1  0  1  -1  1  0       0  1 -1   1  0 -1   0  0 -1
                      -1  0  0  -1  1  0  -1  0  1       0 -1  1   1 -1  0   0 -1  0
                       1  0  0   0  0  1   0  1  0       0  1 -1   0  0 -1   1  0 -1
                      -1  0  1  -1  1  0  -1  0  0       0 -1  0   1 -1  0   0 -1  1
                       1  0 -1   0  0 -1   0  1 -1       0  1  0   0  0  1   1  0  0
                       1  0 -1   0  1 -1   0  0 -1       0 -1  0   0 -1  1   1 -1  0
                      -1  0  1  -1  0  0  -1  1  0       0  1  0   1  0  0   0  0  1
                       0  0 -1   0  1 -1   1  0 -1       1 -1  0   0 -1  1   0 -1  0
                       0  0  1   1  0  0   0  1  0      -1  1  0  -1  0  0  -1  0  1
                       0  0  1   0  1  0   1  0  0       1 -1  0   0 -1  0   0 -1  1
                       0  0 -1   1  0 -1   0  1 -1      -1  1  0  -1  0  1  -1  0  0
           toldfe1     1.00000000E-12 Hartree
           toldfe2     0.00000000E+00 Hartree
           toldfe3     0.00000000E+00 Hartree
           toldfe4     1.00000000E-12 Hartree
           tolwfr1     0.00000000E+00
           tolwfr2     1.00000000E-22
           tolwfr3     1.00000000E-22
           tolwfr4     0.00000000E+00
            typat      1  2
              wtk1       0.01172    0.01172    0.01172    0.02344    0.01172    0.01172
                         0.02344    0.01172    0.02344    0.02344    0.01172    0.01172
                         0.02344    0.01172    0.02344    0.02344    0.01172    0.02344
                         0.02344    0.02344    0.01172    0.01172    0.01172    0.02344
                         0.01172    0.02344    0.02344    0.02344    0.01172    0.02344
                         0.02344    0.02344    0.02344    0.01172    0.01172    0.01172
                         0.01172    0.01172    0.02344    0.02344    0.01172    0.02344
                         0.02344    0.02344    0.02344    0.02344    0.01172    0.01172
                         0.01172    0.01172
              wtk2       0.00098    0.00098    0.00098    0.00098    0.00098    0.00098
                         0.00098    0.00098    0.00098    0.00098    0.00098    0.00098
                         0.00098    0.00098    0.00098    0.00098    0.00098    0.00098
                         0.00098    0.00098    0.00098    0.00098    0.00098    0.00098
                         0.00098    0.00098    0.00098    0.00098    0.00098    0.00098
                         0.00098    0.00098    0.00098    0.00098    0.00098    0.00098
                         0.00098    0.00098    0.00098    0.00098    0.00098    0.00098
                         0.00098    0.00098    0.00098    0.00098    0.00098    0.00098
                         0.00098    0.00098
              wtk3       0.00098    0.00098    0.00098    0.00098    0.00098    0.00098
                         0.00098    0.00098    0.00098    0.00098    0.00098    0.00098
                         0.00098    0.00098    0.00098    0.00098    0.00098    0.00098
                         0.00098    0.00098    0.00098    0.00098    0.00098    0.00098
                         0.00098    0.00098    0.00098    0.00098    0.00098    0.00098
                         0.00098    0.00098    0.00098    0.00098    0.00098    0.00098
                         0.00098    0.00098    0.00098    0.00098    0.00098    0.00098
                         0.00098    0.00098    0.00098    0.00098    0.00098    0.00098
                         0.00098    0.00098
              wtk4       0.00098    0.00098    0.00098    0.00098    0.00098    0.00098
                         0.00098    0.00098    0.00098    0.00098    0.00098    0.00098
                         0.00098    0.00098    0.00098    0.00098    0.00098    0.00098
                         0.00098    0.00098    0.00098    0.00098    0.00098    0.00098
                         0.00098    0.00098    0.00098    0.00098    0.00098    0.00098
                         0.00098    0.00098    0.00098    0.00098    0.00098    0.00098
                         0.00098    0.00098    0.00098    0.00098    0.00098    0.00098
                         0.00098    0.00098    0.00098    0.00098    0.00098    0.00098
                         0.00098    0.00098
                       outvars : Printing only first  50 k-points.
           xangst      0.0000000000E+00  0.0000000000E+00  0.0000000000E+00
                       1.5867016961E+00  1.5867016961E+00  1.5867016961E+00
            xcart      0.0000000000E+00  0.0000000000E+00  0.0000000000E+00
                       2.9984316602E+00  2.9984316603E+00  2.9984316602E+00
             xred      0.0000000000E+00  0.0000000000E+00  0.0000000000E+00
                       2.5000000000E-01  2.5000000000E-01  2.5000000000E-01
            znucl       49.00000   51.00000

================================================================================


- Timing analysis has been suppressed with timopt=0



================================================================================

 Suggested references for the acknowledgment of ABINIT usage.

 The users of ABINIT have little formal obligations with respect to the ABINIT group
 (those specified in the GNU General Public License, http://www.gnu.org/copyleft/gpl.txt).
 However, it is common practice in the scientific literature,
 to acknowledge the efforts of people that have made the research possible.
 In this spirit, please find below suggested citations of work written by ABINIT developers,
 corresponding to implementations inside of ABINIT that you have used in the present run.
 Note also that it will be of great value to readers of publications presenting these results,
 to read papers enabling them to understand the theoretical formalism and details
 of the ABINIT implementation.
 For information on why they are suggested, see also https://docs.abinit.org/theory/acknowledgments.
-
- [1] Metric tensor formulation of strain in density-functional perturbation theory, 
- D. R. Hamann, X. Wu, K. M. Rabe, and D. Vanderbilt, Phys. Rev. B71, 035117 (2005).
- Comment: Non-vanishing rfstrs. Strong suggestion to cite this paper in your publications.
- DOI and bibtex: see https://docs.abinit.org/theory/bibliography/#hamann2005
-
- [2] The Abinit project: Impact, environment and recent developments.
- Computer Phys. Comm. 248, 107042 (2020).
- X.Gonze, B. Amadon, G. Antonius, F.Arnardi, L.Baguet, J.-M.Beuken,
- J.Bieder, F.Bottin, J.Bouchet, E.Bousquet, N.Brouwer, F.Bruneval,
- G.Brunin, T.Cavignac, J.-B. Charraud, Wei Chen, M.Cote, S.Cottenier,
- J.Denier, G.Geneste, Ph.Ghosez, M.Giantomassi, Y.Gillet, O.Gingras,
- D.R.Hamann, G.Hautier, Xu He, N.Helbig, N.Holzwarth, Y.Jia, F.Jollet,
- W.Lafargue-Dit-Hauret, K.Lejaeghere, M.A.L.Marques, A.Martin, C.Martins,
- H.P.C. Miranda, F.Naccarato, K. Persson, G.Petretto, V.Planes, Y.Pouillon,
- S.Prokhorenko, F.Ricci, G.-M.Rignanese, A.H.Romero, M.M.Schmitt, M.Torrent,
- M.J.van Setten, B.Van Troeye, M.J.Verstraete, G.Zerah and J.W.Zwanzig
- Comment: the fifth generic paper describing the ABINIT project.
- Note that a version of this paper, that is not formatted for Computer Phys. Comm. 
- is available at https://www.abinit.org/sites/default/files/ABINIT20.pdf .
- The licence allows the authors to put it on the Web.
- DOI and bibtex: see https://docs.abinit.org/theory/bibliography/#gonze2020
-
- [3] First-principles responses of solids to atomic displacements and homogeneous electric fields:,
- implementation of a conjugate-gradient algorithm. X. Gonze, Phys. Rev. B55, 10337 (1997).
- Comment: Non-vanishing rfphon and/or rfelfd, in the norm-conserving case.
- DOI and bibtex: see https://docs.abinit.org/theory/bibliography/#gonze1997
-
- [4] Dynamical matrices, Born effective charges, dielectric permittivity tensors, and ,
- interatomic force constants from density-functional perturbation theory,
- X. Gonze and C. Lee, Phys. Rev. B55, 10355 (1997).
- Comment: Non-vanishing rfphon and/or rfelfd, in the norm-conserving case.
- DOI and bibtex: see https://docs.abinit.org/theory/bibliography/#gonze1997a
-
- [5] ABINIT: Overview, and focus on selected capabilities
- J. Chem. Phys. 152, 124102 (2020).
- A. Romero, D.C. Allan, B. Amadon, G. Antonius, T. Applencourt, L.Baguet,
- J.Bieder, F.Bottin, J.Bouchet, E.Bousquet, F.Bruneval,
- G.Brunin, D.Caliste, M.Cote,
- J.Denier, C. Dreyer, Ph.Ghosez, M.Giantomassi, Y.Gillet, O.Gingras,
- D.R.Hamann, G.Hautier, F.Jollet, G. Jomard,
- A.Martin, 
- H.P.C. Miranda, F.Naccarato, G.Petretto, N.A. Pike, V.Planes,
- S.Prokhorenko, T. Rangel, F.Ricci, G.-M.Rignanese, M.Royo, M.Stengel, M.Torrent,
- M.J.van Setten, B.Van Troeye, M.J.Verstraete, J.Wiktor, J.W.Zwanziger, and X.Gonze.
- Comment: a global overview of ABINIT, with focus on selected capabilities .
- Note that a version of this paper, that is not formatted for J. Chem. Phys 
- is available at https://www.abinit.org/sites/default/files/ABINIT20_JPC.pdf .
- The licence allows the authors to put it on the Web.
- DOI and bibtex: see https://docs.abinit.org/theory/bibliography/#romero2020
-
- [6] Recent developments in the ABINIT software package.
- Computer Phys. Comm. 205, 106 (2016).
- X.Gonze, F.Jollet, F.Abreu Araujo, D.Adams, B.Amadon, T.Applencourt,
- C.Audouze, J.-M.Beuken, J.Bieder, A.Bokhanchuk, E.Bousquet, F.Bruneval
- D.Caliste, M.Cote, F.Dahm, F.Da Pieve, M.Delaveau, M.Di Gennaro,
- B.Dorado, C.Espejo, G.Geneste, L.Genovese, A.Gerossier, M.Giantomassi,
- Y.Gillet, D.R.Hamann, L.He, G.Jomard, J.Laflamme Janssen, S.Le Roux,
- A.Levitt, A.Lherbier, F.Liu, I.Lukacevic, A.Martin, C.Martins,
- M.J.T.Oliveira, S.Ponce, Y.Pouillon, T.Rangel, G.-M.Rignanese,
- A.H.Romero, B.Rousseau, O.Rubel, A.A.Shukri, M.Stankovski, M.Torrent,
- M.J.Van Setten, B.Van Troeye, M.J.Verstraete, D.Waroquier, J.Wiktor,
- B.Xu, A.Zhou, J.W.Zwanziger.
- Comment: the fourth generic paper describing the ABINIT project.
- Note that a version of this paper, that is not formatted for Computer Phys. Comm. 
- is available at https://www.abinit.org/sites/default/files/ABINIT16.pdf .
- The licence allows the authors to put it on the Web.
- DOI and bibtex: see https://docs.abinit.org/theory/bibliography/#gonze2016
-
- Proc.   0 individual time (sec): cpu=       1409.6  wall=       1345.4

================================================================================

 Calculation completed.
.Delivered   1 WARNINGs and  18 COMMENTs to log file.
+Overall time at end (sec) : cpu=       5626.1  wall=       5381.4
