
 **** DERIVATIVE DATABASE ****    
+DDB, Version number    100401

 linear + nonlinear response calculation of InSb

    usepaw         0
     natom         2
      nkpt      1024
    nsppol         1
      nsym        24
    ntypat         2
    occopt         1
     nband         4
     acell  0.11993726641000D+02  0.11993726641000D+02  0.11993726641000D+02
       amu  0.11482000000000D+03  0.12175300000000D+03
   dilatmx  0.10500000000000D+01
      ecut  0.25000000000000D+02
    ecutsm  0.50000000000000D+00
     intxc         0
      iscf         7
       ixc         3
       kpt -0.62500000000000D-01 -0.12500000000000D+00  0.00000000000000D+00
           -0.12500000000000D+00 -0.62500000000000D-01  0.00000000000000D+00
           -0.62500000000000D-01 -0.62500000000000D-01  0.62500000000000D-01
           -0.62500000000000D-01 -0.25000000000000D+00  0.00000000000000D+00
           -0.12500000000000D+00 -0.18750000000000D+00  0.00000000000000D+00
           -0.62500000000000D-01 -0.18750000000000D+00  0.62500000000000D-01
           -0.18750000000000D+00 -0.12500000000000D+00  0.00000000000000D+00
           -0.12500000000000D+00 -0.12500000000000D+00  0.62500000000000D-01
           -0.62500000000000D-01 -0.12500000000000D+00  0.12500000000000D+00
           -0.25000000000000D+00 -0.62500000000000D-01  0.00000000000000D+00
           -0.18750000000000D+00 -0.62500000000000D-01  0.62500000000000D-01
           -0.12500000000000D+00 -0.62500000000000D-01  0.12500000000000D+00
           -0.62500000000000D-01 -0.62500000000000D-01  0.18750000000000D+00
           -0.62500000000000D-01 -0.37500000000000D+00  0.00000000000000D+00
           -0.12500000000000D+00 -0.31250000000000D+00  0.00000000000000D+00
           -0.62500000000000D-01 -0.31250000000000D+00  0.62500000000000D-01
           -0.18750000000000D+00 -0.25000000000000D+00  0.00000000000000D+00
           -0.12500000000000D+00 -0.25000000000000D+00  0.62500000000000D-01
           -0.62500000000000D-01 -0.25000000000000D+00  0.12500000000000D+00
           -0.25000000000000D+00 -0.18750000000000D+00  0.00000000000000D+00
           -0.18750000000000D+00 -0.18750000000000D+00  0.62500000000000D-01
           -0.12500000000000D+00 -0.18750000000000D+00  0.12500000000000D+00
           -0.62500000000000D-01 -0.18750000000000D+00  0.18750000000000D+00
           -0.31250000000000D+00 -0.12500000000000D+00  0.00000000000000D+00
           -0.25000000000000D+00 -0.12500000000000D+00  0.62500000000000D-01
           -0.18750000000000D+00 -0.12500000000000D+00  0.12500000000000D+00
           -0.12500000000000D+00 -0.12500000000000D+00  0.18750000000000D+00
           -0.62500000000000D-01 -0.12500000000000D+00  0.25000000000000D+00
           -0.37500000000000D+00 -0.62500000000000D-01  0.00000000000000D+00
           -0.31250000000000D+00 -0.62500000000000D-01  0.62500000000000D-01
           -0.25000000000000D+00 -0.62500000000000D-01  0.12500000000000D+00
           -0.18750000000000D+00 -0.62500000000000D-01  0.18750000000000D+00
           -0.12500000000000D+00 -0.62500000000000D-01  0.25000000000000D+00
           -0.62500000000000D-01 -0.62500000000000D-01  0.31250000000000D+00
           -0.62500000000000D-01  0.50000000000000D+00  0.00000000000000D+00
           -0.12500000000000D+00 -0.43750000000000D+00  0.00000000000000D+00
           -0.62500000000000D-01 -0.43750000000000D+00  0.62500000000000D-01
           -0.18750000000000D+00 -0.37500000000000D+00  0.00000000000000D+00
           -0.12500000000000D+00 -0.37500000000000D+00  0.62500000000000D-01
           -0.62500000000000D-01 -0.37500000000000D+00  0.12500000000000D+00
           -0.25000000000000D+00 -0.31250000000000D+00  0.00000000000000D+00
           -0.18750000000000D+00 -0.31250000000000D+00  0.62500000000000D-01
           -0.12500000000000D+00 -0.31250000000000D+00  0.12500000000000D+00
           -0.62500000000000D-01 -0.31250000000000D+00  0.18750000000000D+00
           -0.31250000000000D+00 -0.25000000000000D+00  0.00000000000000D+00
           -0.25000000000000D+00 -0.25000000000000D+00  0.62500000000000D-01
           -0.18750000000000D+00 -0.25000000000000D+00  0.12500000000000D+00
           -0.12500000000000D+00 -0.25000000000000D+00  0.18750000000000D+00
           -0.62500000000000D-01 -0.25000000000000D+00  0.25000000000000D+00
           -0.37500000000000D+00 -0.18750000000000D+00  0.00000000000000D+00
           -0.31250000000000D+00 -0.18750000000000D+00  0.62500000000000D-01
           -0.25000000000000D+00 -0.18750000000000D+00  0.12500000000000D+00
           -0.18750000000000D+00 -0.18750000000000D+00  0.18750000000000D+00
           -0.12500000000000D+00 -0.18750000000000D+00  0.25000000000000D+00
           -0.62500000000000D-01 -0.18750000000000D+00  0.31250000000000D+00
           -0.43750000000000D+00 -0.12500000000000D+00  0.00000000000000D+00
           -0.37500000000000D+00 -0.12500000000000D+00  0.62500000000000D-01
           -0.31250000000000D+00 -0.12500000000000D+00  0.12500000000000D+00
           -0.25000000000000D+00 -0.12500000000000D+00  0.18750000000000D+00
           -0.18750000000000D+00 -0.12500000000000D+00  0.25000000000000D+00
           -0.12500000000000D+00 -0.12500000000000D+00  0.31250000000000D+00
           -0.62500000000000D-01 -0.12500000000000D+00  0.37500000000000D+00
            0.50000000000000D+00 -0.62500000000000D-01  0.00000000000000D+00
           -0.43750000000000D+00 -0.62500000000000D-01  0.62500000000000D-01
           -0.37500000000000D+00 -0.62500000000000D-01  0.12500000000000D+00
           -0.31250000000000D+00 -0.62500000000000D-01  0.18750000000000D+00
           -0.25000000000000D+00 -0.62500000000000D-01  0.25000000000000D+00
           -0.18750000000000D+00 -0.62500000000000D-01  0.31250000000000D+00
           -0.12500000000000D+00 -0.62500000000000D-01  0.37500000000000D+00
           -0.62500000000000D-01 -0.62500000000000D-01  0.43750000000000D+00
           -0.62500000000000D-01  0.37500000000000D+00  0.00000000000000D+00
           -0.12500000000000D+00  0.43750000000000D+00  0.00000000000000D+00
           -0.62500000000000D-01  0.43750000000000D+00  0.62500000000000D-01
           -0.18750000000000D+00  0.50000000000000D+00  0.00000000000000D+00
           -0.12500000000000D+00  0.50000000000000D+00  0.62500000000000D-01
           -0.62500000000000D-01  0.50000000000000D+00  0.12500000000000D+00
           -0.25000000000000D+00 -0.43750000000000D+00  0.00000000000000D+00
           -0.18750000000000D+00 -0.43750000000000D+00  0.62500000000000D-01
           -0.12500000000000D+00 -0.43750000000000D+00  0.12500000000000D+00
           -0.62500000000000D-01 -0.43750000000000D+00  0.18750000000000D+00
           -0.31250000000000D+00 -0.37500000000000D+00  0.00000000000000D+00
           -0.25000000000000D+00 -0.37500000000000D+00  0.62500000000000D-01
           -0.18750000000000D+00 -0.37500000000000D+00  0.12500000000000D+00
           -0.12500000000000D+00 -0.37500000000000D+00  0.18750000000000D+00
           -0.62500000000000D-01 -0.37500000000000D+00  0.25000000000000D+00
           -0.37500000000000D+00 -0.31250000000000D+00  0.00000000000000D+00
           -0.31250000000000D+00 -0.31250000000000D+00  0.62500000000000D-01
           -0.25000000000000D+00 -0.31250000000000D+00  0.12500000000000D+00
           -0.18750000000000D+00 -0.31250000000000D+00  0.18750000000000D+00
           -0.12500000000000D+00 -0.31250000000000D+00  0.25000000000000D+00
           -0.62500000000000D-01 -0.31250000000000D+00  0.31250000000000D+00
           -0.43750000000000D+00 -0.25000000000000D+00  0.00000000000000D+00
           -0.37500000000000D+00 -0.25000000000000D+00  0.62500000000000D-01
           -0.31250000000000D+00 -0.25000000000000D+00  0.12500000000000D+00
           -0.25000000000000D+00 -0.25000000000000D+00  0.18750000000000D+00
           -0.18750000000000D+00 -0.25000000000000D+00  0.25000000000000D+00
           -0.12500000000000D+00 -0.25000000000000D+00  0.31250000000000D+00
           -0.62500000000000D-01 -0.25000000000000D+00  0.37500000000000D+00
            0.50000000000000D+00 -0.18750000000000D+00  0.00000000000000D+00
           -0.43750000000000D+00 -0.18750000000000D+00  0.62500000000000D-01
           -0.37500000000000D+00 -0.18750000000000D+00  0.12500000000000D+00
           -0.31250000000000D+00 -0.18750000000000D+00  0.18750000000000D+00
           -0.25000000000000D+00 -0.18750000000000D+00  0.25000000000000D+00
           -0.18750000000000D+00 -0.18750000000000D+00  0.31250000000000D+00
           -0.12500000000000D+00 -0.18750000000000D+00  0.37500000000000D+00
           -0.62500000000000D-01 -0.18750000000000D+00  0.43750000000000D+00
            0.43750000000000D+00 -0.12500000000000D+00  0.00000000000000D+00
            0.50000000000000D+00 -0.12500000000000D+00  0.62500000000000D-01
           -0.43750000000000D+00 -0.12500000000000D+00  0.12500000000000D+00
           -0.37500000000000D+00 -0.12500000000000D+00  0.18750000000000D+00
           -0.31250000000000D+00 -0.12500000000000D+00  0.25000000000000D+00
           -0.25000000000000D+00 -0.12500000000000D+00  0.31250000000000D+00
           -0.18750000000000D+00 -0.12500000000000D+00  0.37500000000000D+00
           -0.12500000000000D+00 -0.12500000000000D+00  0.43750000000000D+00
           -0.62500000000000D-01 -0.12500000000000D+00  0.50000000000000D+00
            0.37500000000000D+00 -0.62500000000000D-01  0.00000000000000D+00
            0.43750000000000D+00 -0.62500000000000D-01  0.62500000000000D-01
            0.50000000000000D+00 -0.62500000000000D-01  0.12500000000000D+00
           -0.43750000000000D+00 -0.62500000000000D-01  0.18750000000000D+00
           -0.37500000000000D+00 -0.62500000000000D-01  0.25000000000000D+00
           -0.31250000000000D+00 -0.62500000000000D-01  0.31250000000000D+00
           -0.25000000000000D+00 -0.62500000000000D-01  0.37500000000000D+00
           -0.18750000000000D+00 -0.62500000000000D-01  0.43750000000000D+00
           -0.12500000000000D+00 -0.62500000000000D-01  0.50000000000000D+00
           -0.62500000000000D-01 -0.62500000000000D-01 -0.43750000000000D+00
           -0.62500000000000D-01  0.25000000000000D+00  0.00000000000000D+00
           -0.12500000000000D+00  0.31250000000000D+00  0.00000000000000D+00
           -0.62500000000000D-01  0.31250000000000D+00  0.62500000000000D-01
           -0.18750000000000D+00  0.37500000000000D+00  0.00000000000000D+00
           -0.12500000000000D+00  0.37500000000000D+00  0.62500000000000D-01
           -0.62500000000000D-01  0.37500000000000D+00  0.12500000000000D+00
           -0.25000000000000D+00  0.43750000000000D+00  0.00000000000000D+00
           -0.18750000000000D+00  0.43750000000000D+00  0.62500000000000D-01
           -0.12500000000000D+00  0.43750000000000D+00  0.12500000000000D+00
           -0.62500000000000D-01  0.43750000000000D+00  0.18750000000000D+00
           -0.31250000000000D+00  0.50000000000000D+00  0.00000000000000D+00
           -0.25000000000000D+00  0.50000000000000D+00  0.62500000000000D-01
           -0.18750000000000D+00  0.50000000000000D+00  0.12500000000000D+00
           -0.12500000000000D+00  0.50000000000000D+00  0.18750000000000D+00
           -0.62500000000000D-01  0.50000000000000D+00  0.25000000000000D+00
           -0.37500000000000D+00 -0.43750000000000D+00  0.00000000000000D+00
           -0.31250000000000D+00 -0.43750000000000D+00  0.62500000000000D-01
           -0.25000000000000D+00 -0.43750000000000D+00  0.12500000000000D+00
           -0.18750000000000D+00 -0.43750000000000D+00  0.18750000000000D+00
           -0.12500000000000D+00 -0.43750000000000D+00  0.25000000000000D+00
           -0.62500000000000D-01 -0.43750000000000D+00  0.31250000000000D+00
           -0.43750000000000D+00 -0.37500000000000D+00  0.00000000000000D+00
           -0.37500000000000D+00 -0.37500000000000D+00  0.62500000000000D-01
           -0.31250000000000D+00 -0.37500000000000D+00  0.12500000000000D+00
           -0.25000000000000D+00 -0.37500000000000D+00  0.18750000000000D+00
           -0.18750000000000D+00 -0.37500000000000D+00  0.25000000000000D+00
           -0.12500000000000D+00 -0.37500000000000D+00  0.31250000000000D+00
           -0.62500000000000D-01 -0.37500000000000D+00  0.37500000000000D+00
            0.50000000000000D+00 -0.31250000000000D+00  0.00000000000000D+00
           -0.43750000000000D+00 -0.31250000000000D+00  0.62500000000000D-01
           -0.37500000000000D+00 -0.31250000000000D+00  0.12500000000000D+00
           -0.31250000000000D+00 -0.31250000000000D+00  0.18750000000000D+00
           -0.25000000000000D+00 -0.31250000000000D+00  0.25000000000000D+00
           -0.18750000000000D+00 -0.31250000000000D+00  0.31250000000000D+00
           -0.12500000000000D+00 -0.31250000000000D+00  0.37500000000000D+00
           -0.62500000000000D-01 -0.31250000000000D+00  0.43750000000000D+00
            0.43750000000000D+00 -0.25000000000000D+00  0.00000000000000D+00
            0.50000000000000D+00 -0.25000000000000D+00  0.62500000000000D-01
           -0.43750000000000D+00 -0.25000000000000D+00  0.12500000000000D+00
           -0.37500000000000D+00 -0.25000000000000D+00  0.18750000000000D+00
           -0.31250000000000D+00 -0.25000000000000D+00  0.25000000000000D+00
           -0.25000000000000D+00 -0.25000000000000D+00  0.31250000000000D+00
           -0.18750000000000D+00 -0.25000000000000D+00  0.37500000000000D+00
           -0.12500000000000D+00 -0.25000000000000D+00  0.43750000000000D+00
           -0.62500000000000D-01 -0.25000000000000D+00  0.50000000000000D+00
            0.37500000000000D+00 -0.18750000000000D+00  0.00000000000000D+00
            0.43750000000000D+00 -0.18750000000000D+00  0.62500000000000D-01
            0.50000000000000D+00 -0.18750000000000D+00  0.12500000000000D+00
           -0.43750000000000D+00 -0.18750000000000D+00  0.18750000000000D+00
           -0.37500000000000D+00 -0.18750000000000D+00  0.25000000000000D+00
           -0.31250000000000D+00 -0.18750000000000D+00  0.31250000000000D+00
           -0.25000000000000D+00 -0.18750000000000D+00  0.37500000000000D+00
           -0.18750000000000D+00 -0.18750000000000D+00  0.43750000000000D+00
           -0.12500000000000D+00 -0.18750000000000D+00  0.50000000000000D+00
           -0.62500000000000D-01 -0.18750000000000D+00 -0.43750000000000D+00
            0.31250000000000D+00 -0.12500000000000D+00  0.00000000000000D+00
            0.37500000000000D+00 -0.12500000000000D+00  0.62500000000000D-01
            0.43750000000000D+00 -0.12500000000000D+00  0.12500000000000D+00
            0.50000000000000D+00 -0.12500000000000D+00  0.18750000000000D+00
           -0.43750000000000D+00 -0.12500000000000D+00  0.25000000000000D+00
           -0.37500000000000D+00 -0.12500000000000D+00  0.31250000000000D+00
           -0.31250000000000D+00 -0.12500000000000D+00  0.37500000000000D+00
           -0.25000000000000D+00 -0.12500000000000D+00  0.43750000000000D+00
           -0.18750000000000D+00 -0.12500000000000D+00  0.50000000000000D+00
           -0.12500000000000D+00 -0.12500000000000D+00 -0.43750000000000D+00
           -0.62500000000000D-01 -0.12500000000000D+00 -0.37500000000000D+00
            0.25000000000000D+00 -0.62500000000000D-01  0.00000000000000D+00
            0.31250000000000D+00 -0.62500000000000D-01  0.62500000000000D-01
            0.37500000000000D+00 -0.62500000000000D-01  0.12500000000000D+00
            0.43750000000000D+00 -0.62500000000000D-01  0.18750000000000D+00
            0.50000000000000D+00 -0.62500000000000D-01  0.25000000000000D+00
           -0.43750000000000D+00 -0.62500000000000D-01  0.31250000000000D+00
           -0.37500000000000D+00 -0.62500000000000D-01  0.37500000000000D+00
           -0.31250000000000D+00 -0.62500000000000D-01  0.43750000000000D+00
           -0.25000000000000D+00 -0.62500000000000D-01  0.50000000000000D+00
           -0.18750000000000D+00 -0.62500000000000D-01 -0.43750000000000D+00
           -0.12500000000000D+00 -0.62500000000000D-01 -0.37500000000000D+00
           -0.62500000000000D-01 -0.62500000000000D-01 -0.31250000000000D+00
           -0.62500000000000D-01  0.12500000000000D+00  0.00000000000000D+00
           -0.12500000000000D+00  0.18750000000000D+00  0.00000000000000D+00
           -0.62500000000000D-01  0.18750000000000D+00  0.62500000000000D-01
           -0.18750000000000D+00  0.25000000000000D+00  0.00000000000000D+00
           -0.12500000000000D+00  0.25000000000000D+00  0.62500000000000D-01
           -0.62500000000000D-01  0.25000000000000D+00  0.12500000000000D+00
           -0.25000000000000D+00  0.31250000000000D+00  0.00000000000000D+00
           -0.18750000000000D+00  0.31250000000000D+00  0.62500000000000D-01
           -0.12500000000000D+00  0.31250000000000D+00  0.12500000000000D+00
           -0.62500000000000D-01  0.31250000000000D+00  0.18750000000000D+00
           -0.31250000000000D+00  0.37500000000000D+00  0.00000000000000D+00
           -0.25000000000000D+00  0.37500000000000D+00  0.62500000000000D-01
           -0.18750000000000D+00  0.37500000000000D+00  0.12500000000000D+00
           -0.12500000000000D+00  0.37500000000000D+00  0.18750000000000D+00
           -0.62500000000000D-01  0.37500000000000D+00  0.25000000000000D+00
           -0.37500000000000D+00  0.43750000000000D+00  0.00000000000000D+00
           -0.31250000000000D+00  0.43750000000000D+00  0.62500000000000D-01
           -0.25000000000000D+00  0.43750000000000D+00  0.12500000000000D+00
           -0.18750000000000D+00  0.43750000000000D+00  0.18750000000000D+00
           -0.12500000000000D+00  0.43750000000000D+00  0.25000000000000D+00
           -0.62500000000000D-01  0.43750000000000D+00  0.31250000000000D+00
           -0.43750000000000D+00  0.50000000000000D+00  0.00000000000000D+00
           -0.37500000000000D+00  0.50000000000000D+00  0.62500000000000D-01
           -0.31250000000000D+00  0.50000000000000D+00  0.12500000000000D+00
           -0.25000000000000D+00  0.50000000000000D+00  0.18750000000000D+00
           -0.18750000000000D+00  0.50000000000000D+00  0.25000000000000D+00
           -0.12500000000000D+00  0.50000000000000D+00  0.31250000000000D+00
           -0.62500000000000D-01  0.50000000000000D+00  0.37500000000000D+00
            0.50000000000000D+00 -0.43750000000000D+00  0.00000000000000D+00
           -0.43750000000000D+00 -0.43750000000000D+00  0.62500000000000D-01
           -0.37500000000000D+00 -0.43750000000000D+00  0.12500000000000D+00
           -0.31250000000000D+00 -0.43750000000000D+00  0.18750000000000D+00
           -0.25000000000000D+00 -0.43750000000000D+00  0.25000000000000D+00
           -0.18750000000000D+00 -0.43750000000000D+00  0.31250000000000D+00
           -0.12500000000000D+00 -0.43750000000000D+00  0.37500000000000D+00
           -0.62500000000000D-01 -0.43750000000000D+00  0.43750000000000D+00
            0.43750000000000D+00 -0.37500000000000D+00  0.00000000000000D+00
            0.50000000000000D+00 -0.37500000000000D+00  0.62500000000000D-01
           -0.43750000000000D+00 -0.37500000000000D+00  0.12500000000000D+00
           -0.37500000000000D+00 -0.37500000000000D+00  0.18750000000000D+00
           -0.31250000000000D+00 -0.37500000000000D+00  0.25000000000000D+00
           -0.25000000000000D+00 -0.37500000000000D+00  0.31250000000000D+00
           -0.18750000000000D+00 -0.37500000000000D+00  0.37500000000000D+00
           -0.12500000000000D+00 -0.37500000000000D+00  0.43750000000000D+00
           -0.62500000000000D-01 -0.37500000000000D+00  0.50000000000000D+00
            0.37500000000000D+00 -0.31250000000000D+00  0.00000000000000D+00
            0.43750000000000D+00 -0.31250000000000D+00  0.62500000000000D-01
            0.50000000000000D+00 -0.31250000000000D+00  0.12500000000000D+00
           -0.43750000000000D+00 -0.31250000000000D+00  0.18750000000000D+00
           -0.37500000000000D+00 -0.31250000000000D+00  0.25000000000000D+00
           -0.31250000000000D+00 -0.31250000000000D+00  0.31250000000000D+00
           -0.25000000000000D+00 -0.31250000000000D+00  0.37500000000000D+00
           -0.18750000000000D+00 -0.31250000000000D+00  0.43750000000000D+00
           -0.12500000000000D+00 -0.31250000000000D+00  0.50000000000000D+00
           -0.62500000000000D-01 -0.31250000000000D+00 -0.43750000000000D+00
            0.31250000000000D+00 -0.25000000000000D+00  0.00000000000000D+00
            0.37500000000000D+00 -0.25000000000000D+00  0.62500000000000D-01
            0.43750000000000D+00 -0.25000000000000D+00  0.12500000000000D+00
            0.50000000000000D+00 -0.25000000000000D+00  0.18750000000000D+00
           -0.43750000000000D+00 -0.25000000000000D+00  0.25000000000000D+00
           -0.37500000000000D+00 -0.25000000000000D+00  0.31250000000000D+00
           -0.31250000000000D+00 -0.25000000000000D+00  0.37500000000000D+00
           -0.25000000000000D+00 -0.25000000000000D+00  0.43750000000000D+00
           -0.18750000000000D+00 -0.25000000000000D+00  0.50000000000000D+00
           -0.12500000000000D+00 -0.25000000000000D+00 -0.43750000000000D+00
           -0.62500000000000D-01 -0.25000000000000D+00 -0.37500000000000D+00
            0.25000000000000D+00 -0.18750000000000D+00  0.00000000000000D+00
            0.31250000000000D+00 -0.18750000000000D+00  0.62500000000000D-01
            0.37500000000000D+00 -0.18750000000000D+00  0.12500000000000D+00
            0.43750000000000D+00 -0.18750000000000D+00  0.18750000000000D+00
            0.50000000000000D+00 -0.18750000000000D+00  0.25000000000000D+00
           -0.43750000000000D+00 -0.18750000000000D+00  0.31250000000000D+00
           -0.37500000000000D+00 -0.18750000000000D+00  0.37500000000000D+00
           -0.31250000000000D+00 -0.18750000000000D+00  0.43750000000000D+00
           -0.25000000000000D+00 -0.18750000000000D+00  0.50000000000000D+00
           -0.18750000000000D+00 -0.18750000000000D+00 -0.43750000000000D+00
           -0.12500000000000D+00 -0.18750000000000D+00 -0.37500000000000D+00
           -0.62500000000000D-01 -0.18750000000000D+00 -0.31250000000000D+00
            0.18750000000000D+00 -0.12500000000000D+00  0.00000000000000D+00
            0.25000000000000D+00 -0.12500000000000D+00  0.62500000000000D-01
            0.31250000000000D+00 -0.12500000000000D+00  0.12500000000000D+00
            0.37500000000000D+00 -0.12500000000000D+00  0.18750000000000D+00
            0.43750000000000D+00 -0.12500000000000D+00  0.25000000000000D+00
            0.50000000000000D+00 -0.12500000000000D+00  0.31250000000000D+00
           -0.43750000000000D+00 -0.12500000000000D+00  0.37500000000000D+00
           -0.37500000000000D+00 -0.12500000000000D+00  0.43750000000000D+00
           -0.31250000000000D+00 -0.12500000000000D+00  0.50000000000000D+00
           -0.25000000000000D+00 -0.12500000000000D+00 -0.43750000000000D+00
           -0.18750000000000D+00 -0.12500000000000D+00 -0.37500000000000D+00
           -0.12500000000000D+00 -0.12500000000000D+00 -0.31250000000000D+00
           -0.62500000000000D-01 -0.12500000000000D+00 -0.25000000000000D+00
            0.12500000000000D+00 -0.62500000000000D-01  0.00000000000000D+00
            0.18750000000000D+00 -0.62500000000000D-01  0.62500000000000D-01
            0.25000000000000D+00 -0.62500000000000D-01  0.12500000000000D+00
            0.31250000000000D+00 -0.62500000000000D-01  0.18750000000000D+00
            0.37500000000000D+00 -0.62500000000000D-01  0.25000000000000D+00
            0.43750000000000D+00 -0.62500000000000D-01  0.31250000000000D+00
            0.50000000000000D+00 -0.62500000000000D-01  0.37500000000000D+00
           -0.43750000000000D+00 -0.62500000000000D-01  0.43750000000000D+00
           -0.37500000000000D+00 -0.62500000000000D-01  0.50000000000000D+00
           -0.31250000000000D+00 -0.62500000000000D-01 -0.43750000000000D+00
           -0.25000000000000D+00 -0.62500000000000D-01 -0.37500000000000D+00
           -0.18750000000000D+00 -0.62500000000000D-01 -0.31250000000000D+00
           -0.12500000000000D+00 -0.62500000000000D-01 -0.25000000000000D+00
           -0.62500000000000D-01 -0.62500000000000D-01 -0.18750000000000D+00
           -0.62500000000000D-01  0.00000000000000D+00  0.00000000000000D+00
           -0.62500000000000D-01  0.62500000000000D-01  0.62500000000000D-01
           -0.12500000000000D+00  0.12500000000000D+00  0.62500000000000D-01
           -0.62500000000000D-01  0.12500000000000D+00  0.12500000000000D+00
           -0.18750000000000D+00  0.18750000000000D+00  0.62500000000000D-01
           -0.12500000000000D+00  0.18750000000000D+00  0.12500000000000D+00
           -0.62500000000000D-01  0.18750000000000D+00  0.18750000000000D+00
           -0.25000000000000D+00  0.25000000000000D+00  0.62500000000000D-01
           -0.18750000000000D+00  0.25000000000000D+00  0.12500000000000D+00
           -0.12500000000000D+00  0.25000000000000D+00  0.18750000000000D+00
           -0.62500000000000D-01  0.25000000000000D+00  0.25000000000000D+00
           -0.31250000000000D+00  0.31250000000000D+00  0.62500000000000D-01
           -0.25000000000000D+00  0.31250000000000D+00  0.12500000000000D+00
           -0.18750000000000D+00  0.31250000000000D+00  0.18750000000000D+00
           -0.12500000000000D+00  0.31250000000000D+00  0.25000000000000D+00
           -0.62500000000000D-01  0.31250000000000D+00  0.31250000000000D+00
           -0.37500000000000D+00  0.37500000000000D+00  0.62500000000000D-01
           -0.31250000000000D+00  0.37500000000000D+00  0.12500000000000D+00
           -0.25000000000000D+00  0.37500000000000D+00  0.18750000000000D+00
           -0.18750000000000D+00  0.37500000000000D+00  0.25000000000000D+00
           -0.12500000000000D+00  0.37500000000000D+00  0.31250000000000D+00
           -0.62500000000000D-01  0.37500000000000D+00  0.37500000000000D+00
           -0.43750000000000D+00  0.43750000000000D+00  0.62500000000000D-01
           -0.37500000000000D+00  0.43750000000000D+00  0.12500000000000D+00
           -0.31250000000000D+00  0.43750000000000D+00  0.18750000000000D+00
           -0.25000000000000D+00  0.43750000000000D+00  0.25000000000000D+00
           -0.18750000000000D+00  0.43750000000000D+00  0.31250000000000D+00
           -0.12500000000000D+00  0.43750000000000D+00  0.37500000000000D+00
           -0.62500000000000D-01  0.43750000000000D+00  0.43750000000000D+00
            0.50000000000000D+00  0.50000000000000D+00  0.62500000000000D-01
           -0.43750000000000D+00  0.50000000000000D+00  0.12500000000000D+00
           -0.37500000000000D+00  0.50000000000000D+00  0.18750000000000D+00
           -0.31250000000000D+00  0.50000000000000D+00  0.25000000000000D+00
           -0.25000000000000D+00  0.50000000000000D+00  0.31250000000000D+00
           -0.18750000000000D+00  0.50000000000000D+00  0.37500000000000D+00
           -0.12500000000000D+00  0.50000000000000D+00  0.43750000000000D+00
           -0.62500000000000D-01  0.50000000000000D+00  0.50000000000000D+00
            0.43750000000000D+00 -0.43750000000000D+00  0.62500000000000D-01
            0.50000000000000D+00 -0.43750000000000D+00  0.12500000000000D+00
           -0.43750000000000D+00 -0.43750000000000D+00  0.18750000000000D+00
           -0.37500000000000D+00 -0.43750000000000D+00  0.25000000000000D+00
           -0.31250000000000D+00 -0.43750000000000D+00  0.31250000000000D+00
           -0.25000000000000D+00 -0.43750000000000D+00  0.37500000000000D+00
           -0.18750000000000D+00 -0.43750000000000D+00  0.43750000000000D+00
           -0.12500000000000D+00 -0.43750000000000D+00  0.50000000000000D+00
           -0.62500000000000D-01 -0.43750000000000D+00 -0.43750000000000D+00
            0.37500000000000D+00 -0.37500000000000D+00  0.62500000000000D-01
            0.43750000000000D+00 -0.37500000000000D+00  0.12500000000000D+00
            0.50000000000000D+00 -0.37500000000000D+00  0.18750000000000D+00
           -0.43750000000000D+00 -0.37500000000000D+00  0.25000000000000D+00
           -0.37500000000000D+00 -0.37500000000000D+00  0.31250000000000D+00
           -0.31250000000000D+00 -0.37500000000000D+00  0.37500000000000D+00
           -0.25000000000000D+00 -0.37500000000000D+00  0.43750000000000D+00
           -0.18750000000000D+00 -0.37500000000000D+00  0.50000000000000D+00
           -0.12500000000000D+00 -0.37500000000000D+00 -0.43750000000000D+00
           -0.62500000000000D-01 -0.37500000000000D+00 -0.37500000000000D+00
            0.31250000000000D+00 -0.31250000000000D+00  0.62500000000000D-01
            0.37500000000000D+00 -0.31250000000000D+00  0.12500000000000D+00
            0.43750000000000D+00 -0.31250000000000D+00  0.18750000000000D+00
            0.50000000000000D+00 -0.31250000000000D+00  0.25000000000000D+00
           -0.43750000000000D+00 -0.31250000000000D+00  0.31250000000000D+00
           -0.37500000000000D+00 -0.31250000000000D+00  0.37500000000000D+00
           -0.31250000000000D+00 -0.31250000000000D+00  0.43750000000000D+00
           -0.25000000000000D+00 -0.31250000000000D+00  0.50000000000000D+00
           -0.18750000000000D+00 -0.31250000000000D+00 -0.43750000000000D+00
           -0.12500000000000D+00 -0.31250000000000D+00 -0.37500000000000D+00
           -0.62500000000000D-01 -0.31250000000000D+00 -0.31250000000000D+00
            0.25000000000000D+00 -0.25000000000000D+00  0.62500000000000D-01
            0.31250000000000D+00 -0.25000000000000D+00  0.12500000000000D+00
            0.37500000000000D+00 -0.25000000000000D+00  0.18750000000000D+00
            0.43750000000000D+00 -0.25000000000000D+00  0.25000000000000D+00
            0.50000000000000D+00 -0.25000000000000D+00  0.31250000000000D+00
           -0.43750000000000D+00 -0.25000000000000D+00  0.37500000000000D+00
           -0.37500000000000D+00 -0.25000000000000D+00  0.43750000000000D+00
           -0.31250000000000D+00 -0.25000000000000D+00  0.50000000000000D+00
           -0.25000000000000D+00 -0.25000000000000D+00 -0.43750000000000D+00
           -0.18750000000000D+00 -0.25000000000000D+00 -0.37500000000000D+00
           -0.12500000000000D+00 -0.25000000000000D+00 -0.31250000000000D+00
           -0.62500000000000D-01 -0.25000000000000D+00 -0.25000000000000D+00
            0.18750000000000D+00 -0.18750000000000D+00  0.62500000000000D-01
            0.25000000000000D+00 -0.18750000000000D+00  0.12500000000000D+00
            0.31250000000000D+00 -0.18750000000000D+00  0.18750000000000D+00
            0.37500000000000D+00 -0.18750000000000D+00  0.25000000000000D+00
            0.43750000000000D+00 -0.18750000000000D+00  0.31250000000000D+00
            0.50000000000000D+00 -0.18750000000000D+00  0.37500000000000D+00
           -0.43750000000000D+00 -0.18750000000000D+00  0.43750000000000D+00
           -0.37500000000000D+00 -0.18750000000000D+00  0.50000000000000D+00
           -0.31250000000000D+00 -0.18750000000000D+00 -0.43750000000000D+00
           -0.25000000000000D+00 -0.18750000000000D+00 -0.37500000000000D+00
           -0.18750000000000D+00 -0.18750000000000D+00 -0.31250000000000D+00
           -0.12500000000000D+00 -0.18750000000000D+00 -0.25000000000000D+00
           -0.62500000000000D-01 -0.18750000000000D+00 -0.18750000000000D+00
            0.12500000000000D+00 -0.12500000000000D+00  0.62500000000000D-01
            0.18750000000000D+00 -0.12500000000000D+00  0.12500000000000D+00
            0.25000000000000D+00 -0.12500000000000D+00  0.18750000000000D+00
            0.31250000000000D+00 -0.12500000000000D+00  0.25000000000000D+00
            0.37500000000000D+00 -0.12500000000000D+00  0.31250000000000D+00
            0.43750000000000D+00 -0.12500000000000D+00  0.37500000000000D+00
            0.50000000000000D+00 -0.12500000000000D+00  0.43750000000000D+00
           -0.43750000000000D+00 -0.12500000000000D+00  0.50000000000000D+00
           -0.37500000000000D+00 -0.12500000000000D+00 -0.43750000000000D+00
           -0.31250000000000D+00 -0.12500000000000D+00 -0.37500000000000D+00
           -0.25000000000000D+00 -0.12500000000000D+00 -0.31250000000000D+00
           -0.18750000000000D+00 -0.12500000000000D+00 -0.25000000000000D+00
           -0.12500000000000D+00 -0.12500000000000D+00 -0.18750000000000D+00
           -0.62500000000000D-01 -0.12500000000000D+00 -0.12500000000000D+00
            0.00000000000000D+00 -0.62500000000000D-01  0.00000000000000D+00
            0.62500000000000D-01 -0.62500000000000D-01  0.62500000000000D-01
            0.12500000000000D+00 -0.62500000000000D-01  0.12500000000000D+00
            0.18750000000000D+00 -0.62500000000000D-01  0.18750000000000D+00
            0.25000000000000D+00 -0.62500000000000D-01  0.25000000000000D+00
            0.31250000000000D+00 -0.62500000000000D-01  0.31250000000000D+00
            0.37500000000000D+00 -0.62500000000000D-01  0.37500000000000D+00
            0.43750000000000D+00 -0.62500000000000D-01  0.43750000000000D+00
            0.50000000000000D+00 -0.62500000000000D-01  0.50000000000000D+00
           -0.43750000000000D+00 -0.62500000000000D-01 -0.43750000000000D+00
           -0.37500000000000D+00 -0.62500000000000D-01 -0.37500000000000D+00
           -0.31250000000000D+00 -0.62500000000000D-01 -0.31250000000000D+00
           -0.25000000000000D+00 -0.62500000000000D-01 -0.25000000000000D+00
           -0.18750000000000D+00 -0.62500000000000D-01 -0.18750000000000D+00
           -0.12500000000000D+00 -0.62500000000000D-01 -0.12500000000000D+00
           -0.62500000000000D-01 -0.62500000000000D-01 -0.62500000000000D-01
           -0.18750000000000D+00  0.00000000000000D+00  0.00000000000000D+00
           -0.12500000000000D+00  0.00000000000000D+00  0.62500000000000D-01
           -0.62500000000000D-01  0.00000000000000D+00  0.12500000000000D+00
           -0.18750000000000D+00  0.62500000000000D-01  0.62500000000000D-01
           -0.12500000000000D+00  0.62500000000000D-01  0.12500000000000D+00
           -0.62500000000000D-01  0.62500000000000D-01  0.18750000000000D+00
           -0.25000000000000D+00  0.12500000000000D+00  0.62500000000000D-01
           -0.18750000000000D+00  0.12500000000000D+00  0.12500000000000D+00
           -0.12500000000000D+00  0.12500000000000D+00  0.18750000000000D+00
           -0.62500000000000D-01  0.12500000000000D+00  0.25000000000000D+00
           -0.31250000000000D+00  0.18750000000000D+00  0.62500000000000D-01
           -0.25000000000000D+00  0.18750000000000D+00  0.12500000000000D+00
           -0.18750000000000D+00  0.18750000000000D+00  0.18750000000000D+00
           -0.12500000000000D+00  0.18750000000000D+00  0.25000000000000D+00
           -0.62500000000000D-01  0.18750000000000D+00  0.31250000000000D+00
           -0.37500000000000D+00  0.25000000000000D+00  0.62500000000000D-01
           -0.31250000000000D+00  0.25000000000000D+00  0.12500000000000D+00
           -0.25000000000000D+00  0.25000000000000D+00  0.18750000000000D+00
           -0.18750000000000D+00  0.25000000000000D+00  0.25000000000000D+00
           -0.12500000000000D+00  0.25000000000000D+00  0.31250000000000D+00
           -0.62500000000000D-01  0.25000000000000D+00  0.37500000000000D+00
           -0.43750000000000D+00  0.31250000000000D+00  0.62500000000000D-01
           -0.37500000000000D+00  0.31250000000000D+00  0.12500000000000D+00
           -0.31250000000000D+00  0.31250000000000D+00  0.18750000000000D+00
           -0.25000000000000D+00  0.31250000000000D+00  0.25000000000000D+00
           -0.18750000000000D+00  0.31250000000000D+00  0.31250000000000D+00
           -0.12500000000000D+00  0.31250000000000D+00  0.37500000000000D+00
           -0.62500000000000D-01  0.31250000000000D+00  0.43750000000000D+00
            0.50000000000000D+00  0.37500000000000D+00  0.62500000000000D-01
           -0.43750000000000D+00  0.37500000000000D+00  0.12500000000000D+00
           -0.37500000000000D+00  0.37500000000000D+00  0.18750000000000D+00
           -0.31250000000000D+00  0.37500000000000D+00  0.25000000000000D+00
           -0.25000000000000D+00  0.37500000000000D+00  0.31250000000000D+00
           -0.18750000000000D+00  0.37500000000000D+00  0.37500000000000D+00
           -0.12500000000000D+00  0.37500000000000D+00  0.43750000000000D+00
           -0.62500000000000D-01  0.37500000000000D+00  0.50000000000000D+00
            0.43750000000000D+00  0.43750000000000D+00  0.62500000000000D-01
            0.50000000000000D+00  0.43750000000000D+00  0.12500000000000D+00
           -0.43750000000000D+00  0.43750000000000D+00  0.18750000000000D+00
           -0.37500000000000D+00  0.43750000000000D+00  0.25000000000000D+00
           -0.31250000000000D+00  0.43750000000000D+00  0.31250000000000D+00
           -0.25000000000000D+00  0.43750000000000D+00  0.37500000000000D+00
           -0.18750000000000D+00  0.43750000000000D+00  0.43750000000000D+00
           -0.12500000000000D+00  0.43750000000000D+00  0.50000000000000D+00
           -0.62500000000000D-01  0.43750000000000D+00 -0.43750000000000D+00
            0.37500000000000D+00  0.50000000000000D+00  0.62500000000000D-01
            0.43750000000000D+00  0.50000000000000D+00  0.12500000000000D+00
            0.50000000000000D+00  0.50000000000000D+00  0.18750000000000D+00
           -0.43750000000000D+00  0.50000000000000D+00  0.25000000000000D+00
           -0.37500000000000D+00  0.50000000000000D+00  0.31250000000000D+00
           -0.31250000000000D+00  0.50000000000000D+00  0.37500000000000D+00
           -0.25000000000000D+00  0.50000000000000D+00  0.43750000000000D+00
           -0.18750000000000D+00  0.50000000000000D+00  0.50000000000000D+00
           -0.12500000000000D+00  0.50000000000000D+00 -0.43750000000000D+00
           -0.62500000000000D-01  0.50000000000000D+00 -0.37500000000000D+00
            0.31250000000000D+00 -0.43750000000000D+00  0.62500000000000D-01
            0.37500000000000D+00 -0.43750000000000D+00  0.12500000000000D+00
            0.43750000000000D+00 -0.43750000000000D+00  0.18750000000000D+00
            0.50000000000000D+00 -0.43750000000000D+00  0.25000000000000D+00
           -0.43750000000000D+00 -0.43750000000000D+00  0.31250000000000D+00
           -0.37500000000000D+00 -0.43750000000000D+00  0.37500000000000D+00
           -0.31250000000000D+00 -0.43750000000000D+00  0.43750000000000D+00
           -0.25000000000000D+00 -0.43750000000000D+00  0.50000000000000D+00
           -0.18750000000000D+00 -0.43750000000000D+00 -0.43750000000000D+00
           -0.12500000000000D+00 -0.43750000000000D+00 -0.37500000000000D+00
           -0.62500000000000D-01 -0.43750000000000D+00 -0.31250000000000D+00
            0.25000000000000D+00 -0.37500000000000D+00  0.62500000000000D-01
            0.31250000000000D+00 -0.37500000000000D+00  0.12500000000000D+00
            0.37500000000000D+00 -0.37500000000000D+00  0.18750000000000D+00
            0.43750000000000D+00 -0.37500000000000D+00  0.25000000000000D+00
            0.50000000000000D+00 -0.37500000000000D+00  0.31250000000000D+00
           -0.43750000000000D+00 -0.37500000000000D+00  0.37500000000000D+00
           -0.37500000000000D+00 -0.37500000000000D+00  0.43750000000000D+00
           -0.31250000000000D+00 -0.37500000000000D+00  0.50000000000000D+00
           -0.25000000000000D+00 -0.37500000000000D+00 -0.43750000000000D+00
           -0.18750000000000D+00 -0.37500000000000D+00 -0.37500000000000D+00
           -0.12500000000000D+00 -0.37500000000000D+00 -0.31250000000000D+00
           -0.62500000000000D-01 -0.37500000000000D+00 -0.25000000000000D+00
            0.18750000000000D+00 -0.31250000000000D+00  0.62500000000000D-01
            0.25000000000000D+00 -0.31250000000000D+00  0.12500000000000D+00
            0.31250000000000D+00 -0.31250000000000D+00  0.18750000000000D+00
            0.37500000000000D+00 -0.31250000000000D+00  0.25000000000000D+00
            0.43750000000000D+00 -0.31250000000000D+00  0.31250000000000D+00
            0.50000000000000D+00 -0.31250000000000D+00  0.37500000000000D+00
           -0.43750000000000D+00 -0.31250000000000D+00  0.43750000000000D+00
           -0.37500000000000D+00 -0.31250000000000D+00  0.50000000000000D+00
           -0.31250000000000D+00 -0.31250000000000D+00 -0.43750000000000D+00
           -0.25000000000000D+00 -0.31250000000000D+00 -0.37500000000000D+00
           -0.18750000000000D+00 -0.31250000000000D+00 -0.31250000000000D+00
           -0.12500000000000D+00 -0.31250000000000D+00 -0.25000000000000D+00
           -0.62500000000000D-01 -0.31250000000000D+00 -0.18750000000000D+00
            0.12500000000000D+00 -0.25000000000000D+00  0.62500000000000D-01
            0.18750000000000D+00 -0.25000000000000D+00  0.12500000000000D+00
            0.25000000000000D+00 -0.25000000000000D+00  0.18750000000000D+00
            0.31250000000000D+00 -0.25000000000000D+00  0.25000000000000D+00
            0.37500000000000D+00 -0.25000000000000D+00  0.31250000000000D+00
            0.43750000000000D+00 -0.25000000000000D+00  0.37500000000000D+00
            0.50000000000000D+00 -0.25000000000000D+00  0.43750000000000D+00
           -0.43750000000000D+00 -0.25000000000000D+00  0.50000000000000D+00
           -0.37500000000000D+00 -0.25000000000000D+00 -0.43750000000000D+00
           -0.31250000000000D+00 -0.25000000000000D+00 -0.37500000000000D+00
           -0.25000000000000D+00 -0.25000000000000D+00 -0.31250000000000D+00
           -0.18750000000000D+00 -0.25000000000000D+00 -0.25000000000000D+00
           -0.12500000000000D+00 -0.25000000000000D+00 -0.18750000000000D+00
           -0.62500000000000D-01 -0.25000000000000D+00 -0.12500000000000D+00
            0.00000000000000D+00 -0.18750000000000D+00  0.00000000000000D+00
            0.62500000000000D-01 -0.18750000000000D+00  0.62500000000000D-01
            0.12500000000000D+00 -0.18750000000000D+00  0.12500000000000D+00
            0.18750000000000D+00 -0.18750000000000D+00  0.18750000000000D+00
            0.25000000000000D+00 -0.18750000000000D+00  0.25000000000000D+00
            0.31250000000000D+00 -0.18750000000000D+00  0.31250000000000D+00
            0.37500000000000D+00 -0.18750000000000D+00  0.37500000000000D+00
            0.43750000000000D+00 -0.18750000000000D+00  0.43750000000000D+00
            0.50000000000000D+00 -0.18750000000000D+00  0.50000000000000D+00
           -0.43750000000000D+00 -0.18750000000000D+00 -0.43750000000000D+00
           -0.37500000000000D+00 -0.18750000000000D+00 -0.37500000000000D+00
           -0.31250000000000D+00 -0.18750000000000D+00 -0.31250000000000D+00
           -0.25000000000000D+00 -0.18750000000000D+00 -0.25000000000000D+00
           -0.18750000000000D+00 -0.18750000000000D+00 -0.18750000000000D+00
           -0.12500000000000D+00 -0.18750000000000D+00 -0.12500000000000D+00
           -0.62500000000000D-01 -0.18750000000000D+00 -0.62500000000000D-01
            0.00000000000000D+00 -0.12500000000000D+00  0.62500000000000D-01
            0.62500000000000D-01 -0.12500000000000D+00  0.12500000000000D+00
            0.12500000000000D+00 -0.12500000000000D+00  0.18750000000000D+00
            0.18750000000000D+00 -0.12500000000000D+00  0.25000000000000D+00
            0.25000000000000D+00 -0.12500000000000D+00  0.31250000000000D+00
            0.31250000000000D+00 -0.12500000000000D+00  0.37500000000000D+00
            0.37500000000000D+00 -0.12500000000000D+00  0.43750000000000D+00
            0.43750000000000D+00 -0.12500000000000D+00  0.50000000000000D+00
            0.50000000000000D+00 -0.12500000000000D+00 -0.43750000000000D+00
           -0.43750000000000D+00 -0.12500000000000D+00 -0.37500000000000D+00
           -0.37500000000000D+00 -0.12500000000000D+00 -0.31250000000000D+00
           -0.31250000000000D+00 -0.12500000000000D+00 -0.25000000000000D+00
           -0.25000000000000D+00 -0.12500000000000D+00 -0.18750000000000D+00
           -0.18750000000000D+00 -0.12500000000000D+00 -0.12500000000000D+00
           -0.12500000000000D+00 -0.12500000000000D+00 -0.62500000000000D-01
            0.00000000000000D+00 -0.62500000000000D-01  0.12500000000000D+00
            0.62500000000000D-01 -0.62500000000000D-01  0.18750000000000D+00
            0.12500000000000D+00 -0.62500000000000D-01  0.25000000000000D+00
            0.18750000000000D+00 -0.62500000000000D-01  0.31250000000000D+00
            0.25000000000000D+00 -0.62500000000000D-01  0.37500000000000D+00
            0.31250000000000D+00 -0.62500000000000D-01  0.43750000000000D+00
            0.37500000000000D+00 -0.62500000000000D-01  0.50000000000000D+00
            0.43750000000000D+00 -0.62500000000000D-01 -0.43750000000000D+00
            0.50000000000000D+00 -0.62500000000000D-01 -0.37500000000000D+00
           -0.43750000000000D+00 -0.62500000000000D-01 -0.31250000000000D+00
           -0.37500000000000D+00 -0.62500000000000D-01 -0.25000000000000D+00
           -0.31250000000000D+00 -0.62500000000000D-01 -0.18750000000000D+00
           -0.25000000000000D+00 -0.62500000000000D-01 -0.12500000000000D+00
           -0.18750000000000D+00 -0.62500000000000D-01 -0.62500000000000D-01
           -0.31250000000000D+00  0.00000000000000D+00  0.00000000000000D+00
           -0.25000000000000D+00  0.00000000000000D+00  0.62500000000000D-01
           -0.18750000000000D+00  0.00000000000000D+00  0.12500000000000D+00
           -0.12500000000000D+00  0.00000000000000D+00  0.18750000000000D+00
           -0.62500000000000D-01  0.00000000000000D+00  0.25000000000000D+00
           -0.31250000000000D+00  0.62500000000000D-01  0.62500000000000D-01
           -0.25000000000000D+00  0.62500000000000D-01  0.12500000000000D+00
           -0.18750000000000D+00  0.62500000000000D-01  0.18750000000000D+00
           -0.12500000000000D+00  0.62500000000000D-01  0.25000000000000D+00
           -0.62500000000000D-01  0.62500000000000D-01  0.31250000000000D+00
           -0.37500000000000D+00  0.12500000000000D+00  0.62500000000000D-01
           -0.31250000000000D+00  0.12500000000000D+00  0.12500000000000D+00
           -0.25000000000000D+00  0.12500000000000D+00  0.18750000000000D+00
           -0.18750000000000D+00  0.12500000000000D+00  0.25000000000000D+00
           -0.12500000000000D+00  0.12500000000000D+00  0.31250000000000D+00
           -0.62500000000000D-01  0.12500000000000D+00  0.37500000000000D+00
           -0.43750000000000D+00  0.18750000000000D+00  0.62500000000000D-01
           -0.37500000000000D+00  0.18750000000000D+00  0.12500000000000D+00
           -0.31250000000000D+00  0.18750000000000D+00  0.18750000000000D+00
           -0.25000000000000D+00  0.18750000000000D+00  0.25000000000000D+00
           -0.18750000000000D+00  0.18750000000000D+00  0.31250000000000D+00
           -0.12500000000000D+00  0.18750000000000D+00  0.37500000000000D+00
           -0.62500000000000D-01  0.18750000000000D+00  0.43750000000000D+00
            0.50000000000000D+00  0.25000000000000D+00  0.62500000000000D-01
           -0.43750000000000D+00  0.25000000000000D+00  0.12500000000000D+00
           -0.37500000000000D+00  0.25000000000000D+00  0.18750000000000D+00
           -0.31250000000000D+00  0.25000000000000D+00  0.25000000000000D+00
           -0.25000000000000D+00  0.25000000000000D+00  0.31250000000000D+00
           -0.18750000000000D+00  0.25000000000000D+00  0.37500000000000D+00
           -0.12500000000000D+00  0.25000000000000D+00  0.43750000000000D+00
           -0.62500000000000D-01  0.25000000000000D+00  0.50000000000000D+00
            0.43750000000000D+00  0.31250000000000D+00  0.62500000000000D-01
            0.50000000000000D+00  0.31250000000000D+00  0.12500000000000D+00
           -0.43750000000000D+00  0.31250000000000D+00  0.18750000000000D+00
           -0.37500000000000D+00  0.31250000000000D+00  0.25000000000000D+00
           -0.31250000000000D+00  0.31250000000000D+00  0.31250000000000D+00
           -0.25000000000000D+00  0.31250000000000D+00  0.37500000000000D+00
           -0.18750000000000D+00  0.31250000000000D+00  0.43750000000000D+00
           -0.12500000000000D+00  0.31250000000000D+00  0.50000000000000D+00
           -0.62500000000000D-01  0.31250000000000D+00 -0.43750000000000D+00
            0.37500000000000D+00  0.37500000000000D+00  0.62500000000000D-01
            0.43750000000000D+00  0.37500000000000D+00  0.12500000000000D+00
            0.50000000000000D+00  0.37500000000000D+00  0.18750000000000D+00
           -0.43750000000000D+00  0.37500000000000D+00  0.25000000000000D+00
           -0.37500000000000D+00  0.37500000000000D+00  0.31250000000000D+00
           -0.31250000000000D+00  0.37500000000000D+00  0.37500000000000D+00
           -0.25000000000000D+00  0.37500000000000D+00  0.43750000000000D+00
           -0.18750000000000D+00  0.37500000000000D+00  0.50000000000000D+00
           -0.12500000000000D+00  0.37500000000000D+00 -0.43750000000000D+00
           -0.62500000000000D-01  0.37500000000000D+00 -0.37500000000000D+00
            0.31250000000000D+00  0.43750000000000D+00  0.62500000000000D-01
            0.37500000000000D+00  0.43750000000000D+00  0.12500000000000D+00
            0.43750000000000D+00  0.43750000000000D+00  0.18750000000000D+00
            0.50000000000000D+00  0.43750000000000D+00  0.25000000000000D+00
           -0.43750000000000D+00  0.43750000000000D+00  0.31250000000000D+00
           -0.37500000000000D+00  0.43750000000000D+00  0.37500000000000D+00
           -0.31250000000000D+00  0.43750000000000D+00  0.43750000000000D+00
           -0.25000000000000D+00  0.43750000000000D+00  0.50000000000000D+00
           -0.18750000000000D+00  0.43750000000000D+00 -0.43750000000000D+00
           -0.12500000000000D+00  0.43750000000000D+00 -0.37500000000000D+00
           -0.62500000000000D-01  0.43750000000000D+00 -0.31250000000000D+00
            0.25000000000000D+00  0.50000000000000D+00  0.62500000000000D-01
            0.31250000000000D+00  0.50000000000000D+00  0.12500000000000D+00
            0.37500000000000D+00  0.50000000000000D+00  0.18750000000000D+00
            0.43750000000000D+00  0.50000000000000D+00  0.25000000000000D+00
            0.50000000000000D+00  0.50000000000000D+00  0.31250000000000D+00
           -0.43750000000000D+00  0.50000000000000D+00  0.37500000000000D+00
           -0.37500000000000D+00  0.50000000000000D+00  0.43750000000000D+00
           -0.31250000000000D+00  0.50000000000000D+00  0.50000000000000D+00
           -0.25000000000000D+00  0.50000000000000D+00 -0.43750000000000D+00
           -0.18750000000000D+00  0.50000000000000D+00 -0.37500000000000D+00
           -0.12500000000000D+00  0.50000000000000D+00 -0.31250000000000D+00
           -0.62500000000000D-01  0.50000000000000D+00 -0.25000000000000D+00
            0.18750000000000D+00 -0.43750000000000D+00  0.62500000000000D-01
            0.25000000000000D+00 -0.43750000000000D+00  0.12500000000000D+00
            0.31250000000000D+00 -0.43750000000000D+00  0.18750000000000D+00
            0.37500000000000D+00 -0.43750000000000D+00  0.25000000000000D+00
            0.43750000000000D+00 -0.43750000000000D+00  0.31250000000000D+00
            0.50000000000000D+00 -0.43750000000000D+00  0.37500000000000D+00
           -0.43750000000000D+00 -0.43750000000000D+00  0.43750000000000D+00
           -0.37500000000000D+00 -0.43750000000000D+00  0.50000000000000D+00
           -0.31250000000000D+00 -0.43750000000000D+00 -0.43750000000000D+00
           -0.25000000000000D+00 -0.43750000000000D+00 -0.37500000000000D+00
           -0.18750000000000D+00 -0.43750000000000D+00 -0.31250000000000D+00
           -0.12500000000000D+00 -0.43750000000000D+00 -0.25000000000000D+00
           -0.62500000000000D-01 -0.43750000000000D+00 -0.18750000000000D+00
            0.12500000000000D+00 -0.37500000000000D+00  0.62500000000000D-01
            0.18750000000000D+00 -0.37500000000000D+00  0.12500000000000D+00
            0.25000000000000D+00 -0.37500000000000D+00  0.18750000000000D+00
            0.31250000000000D+00 -0.37500000000000D+00  0.25000000000000D+00
            0.37500000000000D+00 -0.37500000000000D+00  0.31250000000000D+00
            0.43750000000000D+00 -0.37500000000000D+00  0.37500000000000D+00
            0.50000000000000D+00 -0.37500000000000D+00  0.43750000000000D+00
           -0.43750000000000D+00 -0.37500000000000D+00  0.50000000000000D+00
           -0.37500000000000D+00 -0.37500000000000D+00 -0.43750000000000D+00
           -0.31250000000000D+00 -0.37500000000000D+00 -0.37500000000000D+00
           -0.25000000000000D+00 -0.37500000000000D+00 -0.31250000000000D+00
           -0.18750000000000D+00 -0.37500000000000D+00 -0.25000000000000D+00
           -0.12500000000000D+00 -0.37500000000000D+00 -0.18750000000000D+00
           -0.62500000000000D-01 -0.37500000000000D+00 -0.12500000000000D+00
            0.00000000000000D+00 -0.31250000000000D+00  0.00000000000000D+00
            0.62500000000000D-01 -0.31250000000000D+00  0.62500000000000D-01
            0.12500000000000D+00 -0.31250000000000D+00  0.12500000000000D+00
            0.18750000000000D+00 -0.31250000000000D+00  0.18750000000000D+00
            0.25000000000000D+00 -0.31250000000000D+00  0.25000000000000D+00
            0.31250000000000D+00 -0.31250000000000D+00  0.31250000000000D+00
            0.37500000000000D+00 -0.31250000000000D+00  0.37500000000000D+00
            0.43750000000000D+00 -0.31250000000000D+00  0.43750000000000D+00
            0.50000000000000D+00 -0.31250000000000D+00  0.50000000000000D+00
           -0.43750000000000D+00 -0.31250000000000D+00 -0.43750000000000D+00
           -0.37500000000000D+00 -0.31250000000000D+00 -0.37500000000000D+00
           -0.31250000000000D+00 -0.31250000000000D+00 -0.31250000000000D+00
           -0.25000000000000D+00 -0.31250000000000D+00 -0.25000000000000D+00
           -0.18750000000000D+00 -0.31250000000000D+00 -0.18750000000000D+00
           -0.12500000000000D+00 -0.31250000000000D+00 -0.12500000000000D+00
           -0.62500000000000D-01 -0.31250000000000D+00 -0.62500000000000D-01
            0.00000000000000D+00 -0.25000000000000D+00  0.62500000000000D-01
            0.62500000000000D-01 -0.25000000000000D+00  0.12500000000000D+00
            0.12500000000000D+00 -0.25000000000000D+00  0.18750000000000D+00
            0.18750000000000D+00 -0.25000000000000D+00  0.25000000000000D+00
            0.25000000000000D+00 -0.25000000000000D+00  0.31250000000000D+00
            0.31250000000000D+00 -0.25000000000000D+00  0.37500000000000D+00
            0.37500000000000D+00 -0.25000000000000D+00  0.43750000000000D+00
            0.43750000000000D+00 -0.25000000000000D+00  0.50000000000000D+00
            0.50000000000000D+00 -0.25000000000000D+00 -0.43750000000000D+00
           -0.43750000000000D+00 -0.25000000000000D+00 -0.37500000000000D+00
           -0.37500000000000D+00 -0.25000000000000D+00 -0.31250000000000D+00
           -0.31250000000000D+00 -0.25000000000000D+00 -0.25000000000000D+00
           -0.25000000000000D+00 -0.25000000000000D+00 -0.18750000000000D+00
           -0.18750000000000D+00 -0.25000000000000D+00 -0.12500000000000D+00
           -0.12500000000000D+00 -0.25000000000000D+00 -0.62500000000000D-01
            0.00000000000000D+00 -0.18750000000000D+00  0.12500000000000D+00
            0.62500000000000D-01 -0.18750000000000D+00  0.18750000000000D+00
            0.12500000000000D+00 -0.18750000000000D+00  0.25000000000000D+00
            0.18750000000000D+00 -0.18750000000000D+00  0.31250000000000D+00
            0.25000000000000D+00 -0.18750000000000D+00  0.37500000000000D+00
            0.31250000000000D+00 -0.18750000000000D+00  0.43750000000000D+00
            0.37500000000000D+00 -0.18750000000000D+00  0.50000000000000D+00
            0.43750000000000D+00 -0.18750000000000D+00 -0.43750000000000D+00
            0.50000000000000D+00 -0.18750000000000D+00 -0.37500000000000D+00
           -0.43750000000000D+00 -0.18750000000000D+00 -0.31250000000000D+00
           -0.37500000000000D+00 -0.18750000000000D+00 -0.25000000000000D+00
           -0.31250000000000D+00 -0.18750000000000D+00 -0.18750000000000D+00
           -0.25000000000000D+00 -0.18750000000000D+00 -0.12500000000000D+00
           -0.18750000000000D+00 -0.18750000000000D+00 -0.62500000000000D-01
            0.00000000000000D+00 -0.12500000000000D+00  0.18750000000000D+00
            0.62500000000000D-01 -0.12500000000000D+00  0.25000000000000D+00
            0.12500000000000D+00 -0.12500000000000D+00  0.31250000000000D+00
            0.18750000000000D+00 -0.12500000000000D+00  0.37500000000000D+00
            0.25000000000000D+00 -0.12500000000000D+00  0.43750000000000D+00
            0.31250000000000D+00 -0.12500000000000D+00  0.50000000000000D+00
            0.37500000000000D+00 -0.12500000000000D+00 -0.43750000000000D+00
            0.43750000000000D+00 -0.12500000000000D+00 -0.37500000000000D+00
            0.50000000000000D+00 -0.12500000000000D+00 -0.31250000000000D+00
           -0.43750000000000D+00 -0.12500000000000D+00 -0.25000000000000D+00
           -0.37500000000000D+00 -0.12500000000000D+00 -0.18750000000000D+00
           -0.31250000000000D+00 -0.12500000000000D+00 -0.12500000000000D+00
           -0.25000000000000D+00 -0.12500000000000D+00 -0.62500000000000D-01
            0.00000000000000D+00 -0.62500000000000D-01  0.25000000000000D+00
            0.62500000000000D-01 -0.62500000000000D-01  0.31250000000000D+00
            0.12500000000000D+00 -0.62500000000000D-01  0.37500000000000D+00
            0.18750000000000D+00 -0.62500000000000D-01  0.43750000000000D+00
            0.25000000000000D+00 -0.62500000000000D-01  0.50000000000000D+00
            0.31250000000000D+00 -0.62500000000000D-01 -0.43750000000000D+00
            0.37500000000000D+00 -0.62500000000000D-01 -0.37500000000000D+00
            0.43750000000000D+00 -0.62500000000000D-01 -0.31250000000000D+00
            0.50000000000000D+00 -0.62500000000000D-01 -0.25000000000000D+00
           -0.43750000000000D+00 -0.62500000000000D-01 -0.18750000000000D+00
           -0.37500000000000D+00 -0.62500000000000D-01 -0.12500000000000D+00
           -0.31250000000000D+00 -0.62500000000000D-01 -0.62500000000000D-01
           -0.43750000000000D+00  0.00000000000000D+00  0.00000000000000D+00
           -0.37500000000000D+00  0.00000000000000D+00  0.62500000000000D-01
           -0.31250000000000D+00  0.00000000000000D+00  0.12500000000000D+00
           -0.25000000000000D+00  0.00000000000000D+00  0.18750000000000D+00
           -0.18750000000000D+00  0.00000000000000D+00  0.25000000000000D+00
           -0.12500000000000D+00  0.00000000000000D+00  0.31250000000000D+00
           -0.62500000000000D-01  0.00000000000000D+00  0.37500000000000D+00
           -0.43750000000000D+00  0.62500000000000D-01  0.62500000000000D-01
           -0.37500000000000D+00  0.62500000000000D-01  0.12500000000000D+00
           -0.31250000000000D+00  0.62500000000000D-01  0.18750000000000D+00
           -0.25000000000000D+00  0.62500000000000D-01  0.25000000000000D+00
           -0.18750000000000D+00  0.62500000000000D-01  0.31250000000000D+00
           -0.12500000000000D+00  0.62500000000000D-01  0.37500000000000D+00
           -0.62500000000000D-01  0.62500000000000D-01  0.43750000000000D+00
            0.50000000000000D+00  0.12500000000000D+00  0.62500000000000D-01
           -0.43750000000000D+00  0.12500000000000D+00  0.12500000000000D+00
           -0.37500000000000D+00  0.12500000000000D+00  0.18750000000000D+00
           -0.31250000000000D+00  0.12500000000000D+00  0.25000000000000D+00
           -0.25000000000000D+00  0.12500000000000D+00  0.31250000000000D+00
           -0.18750000000000D+00  0.12500000000000D+00  0.37500000000000D+00
           -0.12500000000000D+00  0.12500000000000D+00  0.43750000000000D+00
           -0.62500000000000D-01  0.12500000000000D+00  0.50000000000000D+00
            0.43750000000000D+00  0.18750000000000D+00  0.62500000000000D-01
            0.50000000000000D+00  0.18750000000000D+00  0.12500000000000D+00
           -0.43750000000000D+00  0.18750000000000D+00  0.18750000000000D+00
           -0.37500000000000D+00  0.18750000000000D+00  0.25000000000000D+00
           -0.31250000000000D+00  0.18750000000000D+00  0.31250000000000D+00
           -0.25000000000000D+00  0.18750000000000D+00  0.37500000000000D+00
           -0.18750000000000D+00  0.18750000000000D+00  0.43750000000000D+00
           -0.12500000000000D+00  0.18750000000000D+00  0.50000000000000D+00
           -0.62500000000000D-01  0.18750000000000D+00 -0.43750000000000D+00
            0.37500000000000D+00  0.25000000000000D+00  0.62500000000000D-01
            0.43750000000000D+00  0.25000000000000D+00  0.12500000000000D+00
            0.50000000000000D+00  0.25000000000000D+00  0.18750000000000D+00
           -0.43750000000000D+00  0.25000000000000D+00  0.25000000000000D+00
           -0.37500000000000D+00  0.25000000000000D+00  0.31250000000000D+00
           -0.31250000000000D+00  0.25000000000000D+00  0.37500000000000D+00
           -0.25000000000000D+00  0.25000000000000D+00  0.43750000000000D+00
           -0.18750000000000D+00  0.25000000000000D+00  0.50000000000000D+00
           -0.12500000000000D+00  0.25000000000000D+00 -0.43750000000000D+00
           -0.62500000000000D-01  0.25000000000000D+00 -0.37500000000000D+00
            0.31250000000000D+00  0.31250000000000D+00  0.62500000000000D-01
            0.37500000000000D+00  0.31250000000000D+00  0.12500000000000D+00
            0.43750000000000D+00  0.31250000000000D+00  0.18750000000000D+00
            0.50000000000000D+00  0.31250000000000D+00  0.25000000000000D+00
           -0.43750000000000D+00  0.31250000000000D+00  0.31250000000000D+00
           -0.37500000000000D+00  0.31250000000000D+00  0.37500000000000D+00
           -0.31250000000000D+00  0.31250000000000D+00  0.43750000000000D+00
           -0.25000000000000D+00  0.31250000000000D+00  0.50000000000000D+00
           -0.18750000000000D+00  0.31250000000000D+00 -0.43750000000000D+00
           -0.12500000000000D+00  0.31250000000000D+00 -0.37500000000000D+00
           -0.62500000000000D-01  0.31250000000000D+00 -0.31250000000000D+00
            0.25000000000000D+00  0.37500000000000D+00  0.62500000000000D-01
            0.31250000000000D+00  0.37500000000000D+00  0.12500000000000D+00
            0.37500000000000D+00  0.37500000000000D+00  0.18750000000000D+00
            0.43750000000000D+00  0.37500000000000D+00  0.25000000000000D+00
            0.50000000000000D+00  0.37500000000000D+00  0.31250000000000D+00
           -0.43750000000000D+00  0.37500000000000D+00  0.37500000000000D+00
           -0.37500000000000D+00  0.37500000000000D+00  0.43750000000000D+00
           -0.31250000000000D+00  0.37500000000000D+00  0.50000000000000D+00
           -0.25000000000000D+00  0.37500000000000D+00 -0.43750000000000D+00
           -0.18750000000000D+00  0.37500000000000D+00 -0.37500000000000D+00
           -0.12500000000000D+00  0.37500000000000D+00 -0.31250000000000D+00
           -0.62500000000000D-01  0.37500000000000D+00 -0.25000000000000D+00
            0.18750000000000D+00  0.43750000000000D+00  0.62500000000000D-01
            0.25000000000000D+00  0.43750000000000D+00  0.12500000000000D+00
            0.31250000000000D+00  0.43750000000000D+00  0.18750000000000D+00
            0.37500000000000D+00  0.43750000000000D+00  0.25000000000000D+00
            0.43750000000000D+00  0.43750000000000D+00  0.31250000000000D+00
            0.50000000000000D+00  0.43750000000000D+00  0.37500000000000D+00
           -0.43750000000000D+00  0.43750000000000D+00  0.43750000000000D+00
           -0.37500000000000D+00  0.43750000000000D+00  0.50000000000000D+00
           -0.31250000000000D+00  0.43750000000000D+00 -0.43750000000000D+00
           -0.25000000000000D+00  0.43750000000000D+00 -0.37500000000000D+00
           -0.18750000000000D+00  0.43750000000000D+00 -0.31250000000000D+00
           -0.12500000000000D+00  0.43750000000000D+00 -0.25000000000000D+00
           -0.62500000000000D-01  0.43750000000000D+00 -0.18750000000000D+00
            0.12500000000000D+00  0.50000000000000D+00  0.62500000000000D-01
            0.18750000000000D+00  0.50000000000000D+00  0.12500000000000D+00
            0.25000000000000D+00  0.50000000000000D+00  0.18750000000000D+00
            0.31250000000000D+00  0.50000000000000D+00  0.25000000000000D+00
            0.37500000000000D+00  0.50000000000000D+00  0.31250000000000D+00
            0.43750000000000D+00  0.50000000000000D+00  0.37500000000000D+00
            0.50000000000000D+00  0.50000000000000D+00  0.43750000000000D+00
           -0.43750000000000D+00  0.50000000000000D+00  0.50000000000000D+00
           -0.37500000000000D+00  0.50000000000000D+00 -0.43750000000000D+00
           -0.31250000000000D+00  0.50000000000000D+00 -0.37500000000000D+00
           -0.25000000000000D+00  0.50000000000000D+00 -0.31250000000000D+00
           -0.18750000000000D+00  0.50000000000000D+00 -0.25000000000000D+00
           -0.12500000000000D+00  0.50000000000000D+00 -0.18750000000000D+00
           -0.62500000000000D-01  0.50000000000000D+00 -0.12500000000000D+00
            0.00000000000000D+00 -0.43750000000000D+00  0.00000000000000D+00
            0.62500000000000D-01 -0.43750000000000D+00  0.62500000000000D-01
            0.12500000000000D+00 -0.43750000000000D+00  0.12500000000000D+00
            0.18750000000000D+00 -0.43750000000000D+00  0.18750000000000D+00
            0.25000000000000D+00 -0.43750000000000D+00  0.25000000000000D+00
            0.31250000000000D+00 -0.43750000000000D+00  0.31250000000000D+00
            0.37500000000000D+00 -0.43750000000000D+00  0.37500000000000D+00
            0.43750000000000D+00 -0.43750000000000D+00  0.43750000000000D+00
            0.50000000000000D+00 -0.43750000000000D+00  0.50000000000000D+00
           -0.43750000000000D+00 -0.43750000000000D+00 -0.43750000000000D+00
           -0.37500000000000D+00 -0.43750000000000D+00 -0.37500000000000D+00
           -0.31250000000000D+00 -0.43750000000000D+00 -0.31250000000000D+00
           -0.25000000000000D+00 -0.43750000000000D+00 -0.25000000000000D+00
           -0.18750000000000D+00 -0.43750000000000D+00 -0.18750000000000D+00
           -0.12500000000000D+00 -0.43750000000000D+00 -0.12500000000000D+00
           -0.62500000000000D-01 -0.43750000000000D+00 -0.62500000000000D-01
            0.00000000000000D+00 -0.37500000000000D+00  0.62500000000000D-01
            0.62500000000000D-01 -0.37500000000000D+00  0.12500000000000D+00
            0.12500000000000D+00 -0.37500000000000D+00  0.18750000000000D+00
            0.18750000000000D+00 -0.37500000000000D+00  0.25000000000000D+00
            0.25000000000000D+00 -0.37500000000000D+00  0.31250000000000D+00
            0.31250000000000D+00 -0.37500000000000D+00  0.37500000000000D+00
            0.37500000000000D+00 -0.37500000000000D+00  0.43750000000000D+00
            0.43750000000000D+00 -0.37500000000000D+00  0.50000000000000D+00
            0.50000000000000D+00 -0.37500000000000D+00 -0.43750000000000D+00
           -0.43750000000000D+00 -0.37500000000000D+00 -0.37500000000000D+00
           -0.37500000000000D+00 -0.37500000000000D+00 -0.31250000000000D+00
           -0.31250000000000D+00 -0.37500000000000D+00 -0.25000000000000D+00
           -0.25000000000000D+00 -0.37500000000000D+00 -0.18750000000000D+00
           -0.18750000000000D+00 -0.37500000000000D+00 -0.12500000000000D+00
           -0.12500000000000D+00 -0.37500000000000D+00 -0.62500000000000D-01
            0.00000000000000D+00 -0.31250000000000D+00  0.12500000000000D+00
            0.62500000000000D-01 -0.31250000000000D+00  0.18750000000000D+00
            0.12500000000000D+00 -0.31250000000000D+00  0.25000000000000D+00
            0.18750000000000D+00 -0.31250000000000D+00  0.31250000000000D+00
            0.25000000000000D+00 -0.31250000000000D+00  0.37500000000000D+00
            0.31250000000000D+00 -0.31250000000000D+00  0.43750000000000D+00
            0.37500000000000D+00 -0.31250000000000D+00  0.50000000000000D+00
            0.43750000000000D+00 -0.31250000000000D+00 -0.43750000000000D+00
            0.50000000000000D+00 -0.31250000000000D+00 -0.37500000000000D+00
           -0.43750000000000D+00 -0.31250000000000D+00 -0.31250000000000D+00
           -0.37500000000000D+00 -0.31250000000000D+00 -0.25000000000000D+00
           -0.31250000000000D+00 -0.31250000000000D+00 -0.18750000000000D+00
           -0.25000000000000D+00 -0.31250000000000D+00 -0.12500000000000D+00
           -0.18750000000000D+00 -0.31250000000000D+00 -0.62500000000000D-01
            0.00000000000000D+00 -0.25000000000000D+00  0.18750000000000D+00
            0.62500000000000D-01 -0.25000000000000D+00  0.25000000000000D+00
            0.12500000000000D+00 -0.25000000000000D+00  0.31250000000000D+00
            0.18750000000000D+00 -0.25000000000000D+00  0.37500000000000D+00
            0.25000000000000D+00 -0.25000000000000D+00  0.43750000000000D+00
            0.31250000000000D+00 -0.25000000000000D+00  0.50000000000000D+00
            0.37500000000000D+00 -0.25000000000000D+00 -0.43750000000000D+00
            0.43750000000000D+00 -0.25000000000000D+00 -0.37500000000000D+00
            0.50000000000000D+00 -0.25000000000000D+00 -0.31250000000000D+00
           -0.43750000000000D+00 -0.25000000000000D+00 -0.25000000000000D+00
           -0.37500000000000D+00 -0.25000000000000D+00 -0.18750000000000D+00
           -0.31250000000000D+00 -0.25000000000000D+00 -0.12500000000000D+00
           -0.25000000000000D+00 -0.25000000000000D+00 -0.62500000000000D-01
            0.00000000000000D+00 -0.18750000000000D+00  0.25000000000000D+00
            0.62500000000000D-01 -0.18750000000000D+00  0.31250000000000D+00
            0.12500000000000D+00 -0.18750000000000D+00  0.37500000000000D+00
            0.18750000000000D+00 -0.18750000000000D+00  0.43750000000000D+00
            0.25000000000000D+00 -0.18750000000000D+00  0.50000000000000D+00
            0.31250000000000D+00 -0.18750000000000D+00 -0.43750000000000D+00
            0.37500000000000D+00 -0.18750000000000D+00 -0.37500000000000D+00
            0.43750000000000D+00 -0.18750000000000D+00 -0.31250000000000D+00
            0.50000000000000D+00 -0.18750000000000D+00 -0.25000000000000D+00
           -0.43750000000000D+00 -0.18750000000000D+00 -0.18750000000000D+00
           -0.37500000000000D+00 -0.18750000000000D+00 -0.12500000000000D+00
           -0.31250000000000D+00 -0.18750000000000D+00 -0.62500000000000D-01
            0.00000000000000D+00 -0.12500000000000D+00  0.31250000000000D+00
            0.62500000000000D-01 -0.12500000000000D+00  0.37500000000000D+00
            0.12500000000000D+00 -0.12500000000000D+00  0.43750000000000D+00
            0.18750000000000D+00 -0.12500000000000D+00  0.50000000000000D+00
            0.25000000000000D+00 -0.12500000000000D+00 -0.43750000000000D+00
            0.31250000000000D+00 -0.12500000000000D+00 -0.37500000000000D+00
            0.37500000000000D+00 -0.12500000000000D+00 -0.31250000000000D+00
            0.43750000000000D+00 -0.12500000000000D+00 -0.25000000000000D+00
            0.50000000000000D+00 -0.12500000000000D+00 -0.18750000000000D+00
           -0.43750000000000D+00 -0.12500000000000D+00 -0.12500000000000D+00
           -0.37500000000000D+00 -0.12500000000000D+00 -0.62500000000000D-01
            0.00000000000000D+00 -0.62500000000000D-01  0.37500000000000D+00
            0.62500000000000D-01 -0.62500000000000D-01  0.43750000000000D+00
            0.12500000000000D+00 -0.62500000000000D-01  0.50000000000000D+00
            0.18750000000000D+00 -0.62500000000000D-01 -0.43750000000000D+00
            0.25000000000000D+00 -0.62500000000000D-01 -0.37500000000000D+00
            0.31250000000000D+00 -0.62500000000000D-01 -0.31250000000000D+00
            0.37500000000000D+00 -0.62500000000000D-01 -0.25000000000000D+00
            0.43750000000000D+00 -0.62500000000000D-01 -0.18750000000000D+00
            0.50000000000000D+00 -0.62500000000000D-01 -0.12500000000000D+00
           -0.43750000000000D+00 -0.62500000000000D-01 -0.62500000000000D-01
            0.50000000000000D+00  0.00000000000000D+00  0.62500000000000D-01
           -0.43750000000000D+00  0.00000000000000D+00  0.12500000000000D+00
           -0.37500000000000D+00  0.00000000000000D+00  0.18750000000000D+00
           -0.31250000000000D+00  0.00000000000000D+00  0.25000000000000D+00
           -0.25000000000000D+00  0.00000000000000D+00  0.31250000000000D+00
           -0.18750000000000D+00  0.00000000000000D+00  0.37500000000000D+00
           -0.12500000000000D+00  0.00000000000000D+00  0.43750000000000D+00
           -0.62500000000000D-01  0.00000000000000D+00  0.50000000000000D+00
            0.00000000000000D+00  0.50000000000000D+00  0.62500000000000D-01
            0.00000000000000D+00 -0.43750000000000D+00  0.12500000000000D+00
            0.00000000000000D+00 -0.37500000000000D+00  0.18750000000000D+00
            0.00000000000000D+00 -0.31250000000000D+00  0.25000000000000D+00
            0.00000000000000D+00 -0.25000000000000D+00  0.31250000000000D+00
            0.00000000000000D+00 -0.18750000000000D+00  0.37500000000000D+00
            0.00000000000000D+00 -0.12500000000000D+00  0.43750000000000D+00
            0.00000000000000D+00 -0.62500000000000D-01  0.50000000000000D+00
            0.37500000000000D+00  0.00000000000000D+00  0.62500000000000D-01
            0.43750000000000D+00  0.00000000000000D+00  0.12500000000000D+00
            0.50000000000000D+00  0.00000000000000D+00  0.18750000000000D+00
           -0.43750000000000D+00  0.00000000000000D+00  0.25000000000000D+00
           -0.37500000000000D+00  0.00000000000000D+00  0.31250000000000D+00
           -0.31250000000000D+00  0.00000000000000D+00  0.37500000000000D+00
           -0.25000000000000D+00  0.00000000000000D+00  0.43750000000000D+00
           -0.18750000000000D+00  0.00000000000000D+00  0.50000000000000D+00
           -0.12500000000000D+00  0.00000000000000D+00 -0.43750000000000D+00
           -0.62500000000000D-01  0.00000000000000D+00 -0.37500000000000D+00
            0.00000000000000D+00  0.37500000000000D+00  0.62500000000000D-01
            0.00000000000000D+00  0.43750000000000D+00  0.12500000000000D+00
            0.00000000000000D+00  0.50000000000000D+00  0.18750000000000D+00
            0.00000000000000D+00 -0.43750000000000D+00  0.25000000000000D+00
            0.00000000000000D+00 -0.37500000000000D+00  0.31250000000000D+00
            0.00000000000000D+00 -0.31250000000000D+00  0.37500000000000D+00
            0.00000000000000D+00 -0.25000000000000D+00  0.43750000000000D+00
            0.00000000000000D+00 -0.18750000000000D+00  0.50000000000000D+00
            0.00000000000000D+00 -0.12500000000000D+00 -0.43750000000000D+00
            0.00000000000000D+00 -0.62500000000000D-01 -0.37500000000000D+00
            0.25000000000000D+00  0.00000000000000D+00  0.62500000000000D-01
            0.31250000000000D+00  0.00000000000000D+00  0.12500000000000D+00
            0.37500000000000D+00  0.00000000000000D+00  0.18750000000000D+00
            0.43750000000000D+00  0.00000000000000D+00  0.25000000000000D+00
            0.50000000000000D+00  0.00000000000000D+00  0.31250000000000D+00
           -0.43750000000000D+00  0.00000000000000D+00  0.37500000000000D+00
           -0.37500000000000D+00  0.00000000000000D+00  0.43750000000000D+00
           -0.31250000000000D+00  0.00000000000000D+00  0.50000000000000D+00
           -0.25000000000000D+00  0.00000000000000D+00 -0.43750000000000D+00
           -0.18750000000000D+00  0.00000000000000D+00 -0.37500000000000D+00
           -0.12500000000000D+00  0.00000000000000D+00 -0.31250000000000D+00
           -0.62500000000000D-01  0.00000000000000D+00 -0.25000000000000D+00
            0.00000000000000D+00  0.25000000000000D+00  0.62500000000000D-01
            0.00000000000000D+00  0.31250000000000D+00  0.12500000000000D+00
            0.00000000000000D+00  0.37500000000000D+00  0.18750000000000D+00
            0.00000000000000D+00  0.43750000000000D+00  0.25000000000000D+00
            0.00000000000000D+00  0.50000000000000D+00  0.31250000000000D+00
            0.00000000000000D+00 -0.43750000000000D+00  0.37500000000000D+00
            0.00000000000000D+00 -0.37500000000000D+00  0.43750000000000D+00
            0.00000000000000D+00 -0.31250000000000D+00  0.50000000000000D+00
            0.00000000000000D+00 -0.25000000000000D+00 -0.43750000000000D+00
            0.00000000000000D+00 -0.18750000000000D+00 -0.37500000000000D+00
            0.00000000000000D+00 -0.12500000000000D+00 -0.31250000000000D+00
            0.00000000000000D+00 -0.62500000000000D-01 -0.25000000000000D+00
            0.12500000000000D+00  0.00000000000000D+00  0.62500000000000D-01
            0.18750000000000D+00  0.00000000000000D+00  0.12500000000000D+00
            0.25000000000000D+00  0.00000000000000D+00  0.18750000000000D+00
            0.31250000000000D+00  0.00000000000000D+00  0.25000000000000D+00
            0.37500000000000D+00  0.00000000000000D+00  0.31250000000000D+00
            0.43750000000000D+00  0.00000000000000D+00  0.37500000000000D+00
            0.50000000000000D+00  0.00000000000000D+00  0.43750000000000D+00
           -0.43750000000000D+00  0.00000000000000D+00  0.50000000000000D+00
           -0.37500000000000D+00  0.00000000000000D+00 -0.43750000000000D+00
           -0.31250000000000D+00  0.00000000000000D+00 -0.37500000000000D+00
           -0.25000000000000D+00  0.00000000000000D+00 -0.31250000000000D+00
           -0.18750000000000D+00  0.00000000000000D+00 -0.25000000000000D+00
           -0.12500000000000D+00  0.00000000000000D+00 -0.18750000000000D+00
           -0.62500000000000D-01  0.00000000000000D+00 -0.12500000000000D+00
            0.00000000000000D+00  0.12500000000000D+00  0.62500000000000D-01
            0.00000000000000D+00  0.18750000000000D+00  0.12500000000000D+00
            0.00000000000000D+00  0.25000000000000D+00  0.18750000000000D+00
            0.00000000000000D+00  0.31250000000000D+00  0.25000000000000D+00
            0.00000000000000D+00  0.37500000000000D+00  0.31250000000000D+00
            0.00000000000000D+00  0.43750000000000D+00  0.37500000000000D+00
            0.00000000000000D+00  0.50000000000000D+00  0.43750000000000D+00
            0.00000000000000D+00 -0.43750000000000D+00  0.50000000000000D+00
            0.00000000000000D+00 -0.37500000000000D+00 -0.43750000000000D+00
            0.00000000000000D+00 -0.31250000000000D+00 -0.37500000000000D+00
            0.00000000000000D+00 -0.25000000000000D+00 -0.31250000000000D+00
            0.00000000000000D+00 -0.18750000000000D+00 -0.25000000000000D+00
            0.00000000000000D+00 -0.12500000000000D+00 -0.18750000000000D+00
            0.00000000000000D+00 -0.62500000000000D-01 -0.12500000000000D+00
            0.00000000000000D+00  0.00000000000000D+00  0.62500000000000D-01
            0.00000000000000D+00  0.00000000000000D+00  0.18750000000000D+00
            0.00000000000000D+00  0.00000000000000D+00  0.31250000000000D+00
            0.00000000000000D+00  0.00000000000000D+00  0.43750000000000D+00
    kptnrm  0.10000000000000D+01
     ngfft        45   45   45
    nspden         1
   nspinor         1
       occ  0.20000000000000D+01  0.20000000000000D+01  0.20000000000000D+01
            0.20000000000000D+01
     rprim  0.00000000000000D+00  0.50000000000000D+00  0.50000000000000D+00
            0.50000000000000D+00  0.00000000000000D+00  0.50000000000000D+00
            0.50000000000000D+00  0.50000000000000D+00  0.00000000000000D+00
  dfpt_sciss  0.00000000000000D+00
    spinat  0.00000000000000D+00  0.00000000000000D+00  0.00000000000000D+00
[...]
   3   2   2   4  0.00000000000000D+00  0.00000000000000D+00
   1   4   2   4  0.13326581727953D+03  0.00000000000000D+00
   2   4   2   4 -0.39979745183858D+03  0.00000000000000D+00
   3   4   2   4  0.13326581727953D+03  0.00000000000000D+00
   1   1   3   4  0.00000000000000D+00  0.00000000000000D+00
   2   1   3   4  0.00000000000000D+00  0.00000000000000D+00
   3   1   3   4 -0.60792713815550D+01  0.00000000000000D+00
   1   2   3   4  0.00000000000000D+00  0.00000000000000D+00
   2   2   3   4  0.00000000000000D+00  0.00000000000000D+00
   3   2   3   4 -0.44230401260648D+02  0.00000000000000D+00
   1   4   3   4  0.13326581727953D+03  0.00000000000000D+00
   2   4   3   4  0.13326581727953D+03  0.00000000000000D+00
   3   4   3   4 -0.39979745183858D+03  0.00000000000000D+00
   1   1   1   5  0.10208152169354D-10  0.00000000000000D+00
   2   1   1   5 -0.25178381912651D-11  0.00000000000000D+00
   3   1   1   5 -0.12705478585659D-10  0.00000000000000D+00
   1   2   1   5 -0.43062357679211D-11  0.00000000000000D+00
   2   2   1   5  0.69090098953371D-13  0.00000000000000D+00
   3   2   1   5  0.44293977232699D-11  0.00000000000000D+00
   1   4   1   5  0.86736173798840D-18  0.00000000000000D+00
   2   4   1   5 -0.17347234759768D-17  0.00000000000000D+00
   3   4   1   5 -0.26020852139652D-17  0.00000000000000D+00
   1   5   1   5  0.10520987816408D+01  0.00000000000000D+00
   2   5   1   5  0.52006794138428D+00  0.00000000000000D+00
   3   5   1   5  0.52006794133411D+00  0.00000000000000D+00
   1   6   1   5 -0.52530134033595D-10  0.00000000000000D+00
   2   6   1   5  0.16903567109527D-13  0.00000000000000D+00
   3   6   1   5  0.15522433439361D-09  0.00000000000000D+00
   1   1   2   5  0.10229682542606D-10  0.00000000000000D+00
   2   1   2   5  0.14485342810933D-13  0.00000000000000D+00
   3   1   2   5 -0.10157491511161D-10  0.00000000000000D+00
   1   2   2   5 -0.42909671079676D-11  0.00000000000000D+00
   2   2   2   5  0.10674910810636D-13  0.00000000000000D+00
   3   2   2   5  0.43764118321333D-11  0.00000000000000D+00
   1   4   2   5  0.00000000000000D+00  0.00000000000000D+00
   2   4   2   5  0.00000000000000D+00  0.00000000000000D+00
   3   4   2   5  0.00000000000000D+00  0.00000000000000D+00
   1   5   2   5  0.52006793774365D+00  0.00000000000000D+00
   2   5   2   5  0.10520987865478D+01  0.00000000000000D+00
   3   5   2   5  0.52006793764332D+00  0.00000000000000D+00
   1   6   2   5 -0.15516071879297D-09  0.00000000000000D+00
   2   6   2   5  0.35300249244055D-14  0.00000000000000D+00
   3   6   2   5  0.15522618691809D-09  0.00000000000000D+00
   1   1   3   5  0.12771508343931D-10  0.00000000000000D+00
   2   1   3   5  0.25740621804370D-11  0.00000000000000D+00
   3   1   3   5 -0.10174001423409D-10  0.00000000000000D+00
   1   2   3   5 -0.43953882923329D-11  0.00000000000000D+00
   2   2   3   5 -0.75904549987413D-13  0.00000000000000D+00
   3   2   3   5  0.43567513482715D-11  0.00000000000000D+00
   1   4   3   5  0.00000000000000D+00  0.00000000000000D+00
   2   4   3   5  0.00000000000000D+00  0.00000000000000D+00
   3   4   3   5  0.00000000000000D+00  0.00000000000000D+00
   1   5   3   5  0.52006793867823D+00  0.00000000000000D+00
   2   5   3   5  0.52006793862806D+00  0.00000000000000D+00
   3   5   3   5  0.10520987820570D+01  0.00000000000000D+00
   1   6   3   5 -0.15516250247075D-09  0.00000000000000D+00
   2   6   3   5  0.16601938506408D-13  0.00000000000000D+00
   3   6   3   5  0.52548301004380D-10  0.00000000000000D+00
   1   1   1   6  0.28991250358770D-11  0.00000000000000D+00
   2   1   1   6 -0.81624329941287D+00  0.00000000000000D+00
   3   1   1   6 -0.81624329940998D+00  0.00000000000000D+00
   1   2   1   6 -0.10188227931987D-11  0.00000000000000D+00
   2   2   1   6  0.81624332603791D+00  0.00000000000000D+00
   3   2   1   6  0.81624332603690D+00  0.00000000000000D+00
   1   4   1   6  0.24995696478937D+01  0.00000000000000D+00
   2   4   1   6 -0.24995696478937D+01  0.00000000000000D+00
   3   4   1   6 -0.24995696478937D+01  0.00000000000000D+00
   1   5   1   6  0.81866069658854D-09  0.00000000000000D+00
   2   5   1   6 -0.16640340187943D-09  0.00000000000000D+00
   3   5   1   6 -0.16640533776673D-09  0.00000000000000D+00
   1   6   1   6  0.74753991975711D+00  0.00000000000000D+00
   2   6   1   6  0.54976730483215D-10  0.00000000000000D+00
   3   6   1   6  0.66733395869273D-14  0.00000000000000D+00
   1   1   2   6 -0.81624329786999D+00  0.00000000000000D+00
   2   1   2   6  0.62262748884407D-14  0.00000000000000D+00
   3   1   2   6 -0.81624329786420D+00  0.00000000000000D+00
   1   2   2   6  0.81624331098895D+00  0.00000000000000D+00
   2   2   2   6  0.96594267931893D-14  0.00000000000000D+00
   3   2   2   6  0.81624331098690D+00  0.00000000000000D+00
   1   4   2   6 -0.24995696662212D+01  0.00000000000000D+00
   2   4   2   6  0.24995696662212D+01  0.00000000000000D+00
   3   4   2   6 -0.24995696662212D+01  0.00000000000000D+00
   1   5   2   6 -0.12290407429414D-09  0.00000000000000D+00
   2   5   2   6  0.87698911481618D-09  0.00000000000000D+00
   3   5   2   6 -0.12290553609096D-09  0.00000000000000D+00
   1   6   2   6  0.54976950493609D-10  0.00000000000000D+00
   2   6   2   6  0.74753991752637D+00  0.00000000000000D+00
   3   6   2   6 -0.54957038839721D-10  0.00000000000000D+00
   1   1   3   6 -0.81624329856061D+00  0.00000000000000D+00
   2   1   3   6 -0.81624329855772D+00  0.00000000000000D+00
   3   1   3   6 -0.28845446803761D-11  0.00000000000000D+00
   1   2   3   6  0.81624330450211D+00  0.00000000000000D+00
   2   2   3   6  0.81624330450108D+00  0.00000000000000D+00
   3   2   3   6  0.10241380905644D-11  0.00000000000000D+00
   1   4   3   6 -0.24995696181194D+01  0.00000000000000D+00
   2   4   3   6 -0.24995696181194D+01  0.00000000000000D+00
   3   4   3   6  0.24995696181194D+01  0.00000000000000D+00
   1   5   3   6  0.13533695498232D-09  0.00000000000000D+00
   2   5   3   6  0.13533885832935D-09  0.00000000000000D+00
   3   5   3   6  0.95262424212156D-09  0.00000000000000D+00
   1   6   3   6  0.79360811828937D-14  0.00000000000000D+00
   2   6   3   6 -0.54955817982345D-10  0.00000000000000D+00
   3   6   3   6  0.74753991847835D+00  0.00000000000000D+00
  
 3rd derivatives              - # elements :     189
 qpt  0.00000000E+00  0.00000000E+00  0.00000000E+00   1.0
      0.00000000E+00  0.00000000E+00  0.00000000E+00   1.0
      0.00000000E+00  0.00000000E+00  0.00000000E+00   1.0
   1   4   1   4   1   1 -0.17236947445713D+03  0.00000000000000D+00
   2   4   1   4   1   1  0.86184739976100D+02  0.00000000000000D+00
   3   4   1   4   1   1  0.86184739976100D+02  0.00000000000000D+00
   1   4   2   4   1   1  0.86184739795026D+02  0.00000000000000D+00
   2   4   2   4   1   1  0.00000000000000D+00  0.00000000000000D+00
   3   4   2   4   1   1  0.00000000000000D+00  0.00000000000000D+00
   1   4   3   4   1   1  0.86184739795026D+02  0.00000000000000D+00
   2   4   3   4   1   1  0.00000000000000D+00  0.00000000000000D+00
   3   4   3   4   1   1  0.00000000000000D+00  0.00000000000000D+00
   1   4   1   4   2   1  0.00000000000000D+00  0.00000000000000D+00
   2   4   1   4   2   1  0.86184734843176D+02  0.00000000000000D+00
   3   4   1   4   2   1  0.00000000000000D+00  0.00000000000000D+00
   1   4   2   4   2   1  0.86184739976100D+02  0.00000000000000D+00
   2   4   2   4   2   1 -0.17236947445713D+03  0.00000000000000D+00
   3   4   2   4   2   1  0.86184739976100D+02  0.00000000000000D+00
   1   4   3   4   2   1  0.00000000000000D+00  0.00000000000000D+00
   2   4   3   4   2   1  0.86184739795026D+02  0.00000000000000D+00
   3   4   3   4   2   1  0.00000000000000D+00  0.00000000000000D+00
   1   4   1   4   3   1  0.00000000000000D+00  0.00000000000000D+00
   2   4   1   4   3   1  0.00000000000000D+00  0.00000000000000D+00
   3   4   1   4   3   1  0.86184739795026D+02  0.00000000000000D+00
   1   4   2   4   3   1  0.00000000000000D+00  0.00000000000000D+00
   2   4   2   4   3   1  0.00000000000000D+00  0.00000000000000D+00
   3   4   2   4   3   1  0.86184734843176D+02  0.00000000000000D+00
   1   4   3   4   3   1  0.86184739976100D+02  0.00000000000000D+00
   2   4   3   4   3   1  0.86184739976100D+02  0.00000000000000D+00
   3   4   3   4   3   1 -0.17236947445713D+03  0.00000000000000D+00
   1   4   1   4   1   2  0.14886883062484D+03  0.00000000000000D+00
   2   4   1   4   1   2 -0.74434466745551D+02  0.00000000000000D+00
   3   4   1   4   1   2 -0.74434466745551D+02  0.00000000000000D+00
   1   4   2   4   1   2 -0.74434461606756D+02  0.00000000000000D+00
   2   4   2   4   1   2  0.00000000000000D+00  0.00000000000000D+00
   3   4   2   4   1   2  0.00000000000000D+00  0.00000000000000D+00
   1   4   3   4   1   2 -0.74434461606756D+02  0.00000000000000D+00
   2   4   3   4   1   2  0.00000000000000D+00  0.00000000000000D+00
   3   4   3   4   1   2  0.00000000000000D+00  0.00000000000000D+00
   1   4   1   4   2   2  0.00000000000000D+00  0.00000000000000D+00
   2   4   1   4   2   2 -0.74434374156876D+02  0.00000000000000D+00
   3   4   1   4   2   2  0.00000000000000D+00  0.00000000000000D+00
   1   4   2   4   2   2 -0.74434466745551D+02  0.00000000000000D+00
   2   4   2   4   2   2  0.14886883062484D+03  0.00000000000000D+00
   3   4   2   4   2   2 -0.74434466745551D+02  0.00000000000000D+00
   1   4   3   4   2   2  0.00000000000000D+00  0.00000000000000D+00
   2   4   3   4   2   2 -0.74434461606756D+02  0.00000000000000D+00
   3   4   3   4   2   2  0.00000000000000D+00  0.00000000000000D+00
   1   4   1   4   3   2  0.00000000000000D+00  0.00000000000000D+00
   2   4   1   4   3   2  0.00000000000000D+00  0.00000000000000D+00
   3   4   1   4   3   2 -0.74434461606756D+02  0.00000000000000D+00
   1   4   2   4   3   2  0.00000000000000D+00  0.00000000000000D+00
   2   4   2   4   3   2  0.00000000000000D+00  0.00000000000000D+00
   3   4   2   4   3   2 -0.74434374156876D+02  0.00000000000000D+00
   1   4   3   4   3   2 -0.74434466745551D+02  0.00000000000000D+00
   2   4   3   4   3   2 -0.74434466745551D+02  0.00000000000000D+00
   3   4   3   4   3   2  0.14886883062484D+03  0.00000000000000D+00
   1   4   1   1   1   4 -0.45135713902545D+03  0.00000000000000D+00
   2   4   1   1   1   4  0.22567857477818D+03  0.00000000000000D+00
   3   4   1   1   1   4  0.22567857477818D+03  0.00000000000000D+00
   1   4   2   1   1   4  0.00000000000000D+00  0.00000000000000D+00
   2   4   2   1   1   4  0.22567856424726D+03  0.00000000000000D+00
   3   4   2   1   1   4  0.00000000000000D+00  0.00000000000000D+00
   1   4   3   1   1   4  0.00000000000000D+00  0.00000000000000D+00
   2   4   3   1   1   4  0.00000000000000D+00  0.00000000000000D+00
   3   4   3   1   1   4  0.22567857477818D+03  0.00000000000000D+00
   1   4   1   2   1   4  0.49584504636980D+03  0.00000000000000D+00
   2   4   1   2   1   4 -0.24792252853440D+03  0.00000000000000D+00
   3   4   1   2   1   4 -0.24792252853440D+03  0.00000000000000D+00
   1   4   2   2   1   4  0.00000000000000D+00  0.00000000000000D+00
   2   4   2   2   1   4 -0.24792251783540D+03  0.00000000000000D+00
   3   4   2   2   1   4  0.00000000000000D+00  0.00000000000000D+00
   1   4   3   2   1   4  0.00000000000000D+00  0.00000000000000D+00
   2   4   3   2   1   4  0.00000000000000D+00  0.00000000000000D+00
   3   4   3   2   1   4 -0.24792252853440D+03  0.00000000000000D+00
   1   1   1   4   1   4 -0.17236947445713D+03  0.00000000000000D+00
   2   1   1   4   1   4  0.00000000000000D+00  0.00000000000000D+00
   3   1   1   4   1   4  0.00000000000000D+00  0.00000000000000D+00
   1   2   1   4   1   4  0.14886883062484D+03  0.00000000000000D+00
   2   2   1   4   1   4  0.00000000000000D+00  0.00000000000000D+00
   3   2   1   4   1   4  0.00000000000000D+00  0.00000000000000D+00
   1   4   1   4   1   4  0.30534836764674D+04  0.00000000000000D+00
   2   4   1   4   1   4 -0.10178278869200D+04  0.00000000000000D+00
   3   4   1   4   1   4 -0.10178279293595D+04  0.00000000000000D+00
   1   1   2   4   1   4  0.86184739795026D+02  0.00000000000000D+00
   2   1   2   4   1   4  0.86184734299955D+02  0.00000000000000D+00
   3   1   2   4   1   4  0.00000000000000D+00  0.00000000000000D+00
   1   2   2   4   1   4 -0.74434461606756D+02  0.00000000000000D+00
   2   2   2   4   1   4 -0.74434358740493D+02  0.00000000000000D+00
   3   2   2   4   1   4  0.00000000000000D+00  0.00000000000000D+00
   1   4   2   4   1   4 -0.10178278784425D+04  0.00000000000000D+00
   2   4   2   4   1   4 -0.10178279208820D+04  0.00000000000000D+00
   3   4   2   4   1   4  0.10178278578161D+04  0.00000000000000D+00
   1   1   3   4   1   4  0.86184739795026D+02  0.00000000000000D+00
   2   1   3   4   1   4  0.00000000000000D+00  0.00000000000000D+00
   3   1   3   4   1   4  0.86184739976100D+02  0.00000000000000D+00
   1   2   3   4   1   4 -0.74434461606756D+02  0.00000000000000D+00
   2   2   3   4   1   4  0.00000000000000D+00  0.00000000000000D+00
   3   2   3   4   1   4 -0.74434466745551D+02  0.00000000000000D+00
   1   4   3   4   1   4 -0.10178278784425D+04  0.00000000000000D+00
   2   4   3   4   1   4  0.10178279415084D+04  0.00000000000000D+00
   3   4   3   4   1   4 -0.10178278686654D+04  0.00000000000000D+00
   1   4   1   1   2   4  0.22567857477818D+03  0.00000000000000D+00
   2   4   1   1   2   4  0.00000000000000D+00  0.00000000000000D+00
   3   4   1   1   2   4  0.00000000000000D+00  0.00000000000000D+00
   1   4   2   1   2   4  0.22567857477818D+03  0.00000000000000D+00
   2   4   2   1   2   4 -0.45135713902545D+03  0.00000000000000D+00
   3   4   2   1   2   4  0.22567857477818D+03  0.00000000000000D+00
   1   4   3   1   2   4  0.00000000000000D+00  0.00000000000000D+00
   2   4   3   1   2   4  0.00000000000000D+00  0.00000000000000D+00
   3   4   3   1   2   4  0.22567856424726D+03  0.00000000000000D+00
   1   4   1   2   2   4 -0.24792252853440D+03  0.00000000000000D+00
   2   4   1   2   2   4  0.00000000000000D+00  0.00000000000000D+00
   3   4   1   2   2   4  0.00000000000000D+00  0.00000000000000D+00
   1   4   2   2   2   4 -0.24792252853440D+03  0.00000000000000D+00
   2   4   2   2   2   4  0.49584504636980D+03  0.00000000000000D+00
   3   4   2   2   2   4 -0.24792252853440D+03  0.00000000000000D+00
   1   4   3   2   2   4  0.00000000000000D+00  0.00000000000000D+00
   2   4   3   2   2   4  0.00000000000000D+00  0.00000000000000D+00
   3   4   3   2   2   4 -0.24792251783540D+03  0.00000000000000D+00
   1   1   1   4   2   4  0.86184739976100D+02  0.00000000000000D+00
   2   1   1   4   2   4  0.86184739795026D+02  0.00000000000000D+00
   3   1   1   4   2   4  0.00000000000000D+00  0.00000000000000D+00
   1   2   1   4   2   4 -0.74434466745551D+02  0.00000000000000D+00
   2   2   1   4   2   4 -0.74434461606756D+02  0.00000000000000D+00
   3   2   1   4   2   4  0.00000000000000D+00  0.00000000000000D+00
   1   4   1   4   2   4 -0.10178278869200D+04  0.00000000000000D+00
   2   4   1   4   2   4 -0.10178279195824D+04  0.00000000000000D+00
   3   4   1   4   2   4  0.10178278662936D+04  0.00000000000000D+00
   1   1   2   4   2   4  0.00000000000000D+00  0.00000000000000D+00
   2   1   2   4   2   4 -0.17236947445713D+03  0.00000000000000D+00
   3   1   2   4   2   4  0.00000000000000D+00  0.00000000000000D+00
   1   2   2   4   2   4  0.00000000000000D+00  0.00000000000000D+00
   2   2   2   4   2   4  0.14886883062484D+03  0.00000000000000D+00
   3   2   2   4   2   4  0.00000000000000D+00  0.00000000000000D+00
   1   4   2   4   2   4 -0.10178279208820D+04  0.00000000000000D+00
   2   4   2   4   2   4  0.30534836764674D+04  0.00000000000000D+00
   3   4   2   4   2   4 -0.10178278869200D+04  0.00000000000000D+00
   1   1   3   4   2   4  0.00000000000000D+00  0.00000000000000D+00
   2   1   3   4   2   4  0.86184739795026D+02  0.00000000000000D+00
   3   1   3   4   2   4  0.86184734299955D+02  0.00000000000000D+00
   1   2   3   4   2   4  0.00000000000000D+00  0.00000000000000D+00
   2   2   3   4   2   4 -0.74434461606756D+02  0.00000000000000D+00
   3   2   3   4   2   4 -0.74434358740493D+02  0.00000000000000D+00
   1   4   3   4   2   4  0.10178279415084D+04  0.00000000000000D+00
   2   4   3   4   2   4 -0.10178278784425D+04  0.00000000000000D+00
   3   4   3   4   2   4 -0.10178279208820D+04  0.00000000000000D+00
   1   4   1   1   3   4  0.22567857477818D+03  0.00000000000000D+00
   2   4   1   1   3   4  0.00000000000000D+00  0.00000000000000D+00
   3   4   1   1   3   4  0.00000000000000D+00  0.00000000000000D+00
   1   4   2   1   3   4  0.00000000000000D+00  0.00000000000000D+00
   2   4   2   1   3   4  0.22567857477818D+03  0.00000000000000D+00
   3   4   2   1   3   4  0.00000000000000D+00  0.00000000000000D+00
   1   4   3   1   3   4  0.22567857477818D+03  0.00000000000000D+00
   2   4   3   1   3   4  0.22567857477818D+03  0.00000000000000D+00
   3   4   3   1   3   4 -0.45135713902545D+03  0.00000000000000D+00
   1   4   1   2   3   4 -0.24792252853440D+03  0.00000000000000D+00
   2   4   1   2   3   4  0.00000000000000D+00  0.00000000000000D+00
   3   4   1   2   3   4  0.00000000000000D+00  0.00000000000000D+00
   1   4   2   2   3   4  0.00000000000000D+00  0.00000000000000D+00
   2   4   2   2   3   4 -0.24792252853440D+03  0.00000000000000D+00
   3   4   2   2   3   4  0.00000000000000D+00  0.00000000000000D+00
   1   4   3   2   3   4 -0.24792252853440D+03  0.00000000000000D+00
   2   4   3   2   3   4 -0.24792252853440D+03  0.00000000000000D+00
   3   4   3   2   3   4  0.49584504636980D+03  0.00000000000000D+00
   1   1   1   4   3   4  0.86184739976100D+02  0.00000000000000D+00
   2   1   1   4   3   4  0.00000000000000D+00  0.00000000000000D+00
   3   1   1   4   3   4  0.86184739795026D+02  0.00000000000000D+00
   1   2   1   4   3   4 -0.74434466745551D+02  0.00000000000000D+00
   2   2   1   4   3   4  0.00000000000000D+00  0.00000000000000D+00
   3   2   1   4   3   4 -0.74434461606756D+02  0.00000000000000D+00
   1   4   1   4   3   4 -0.10178279208820D+04  0.00000000000000D+00
   2   4   1   4   3   4  0.10178278662936D+04  0.00000000000000D+00
   3   4   1   4   3   4 -0.10178278784425D+04  0.00000000000000D+00
   1   1   2   4   3   4  0.00000000000000D+00  0.00000000000000D+00
   2   1   2   4   3   4  0.86184739976100D+02  0.00000000000000D+00
   3   1   2   4   3   4  0.86184739795026D+02  0.00000000000000D+00
   1   2   2   4   3   4  0.00000000000000D+00  0.00000000000000D+00
   2   2   2   4   3   4 -0.74434466745551D+02  0.00000000000000D+00
   3   2   2   4   3   4 -0.74434461606756D+02  0.00000000000000D+00
   1   4   2   4   3   4  0.10178278578161D+04  0.00000000000000D+00
   2   4   2   4   3   4 -0.10178278869200D+04  0.00000000000000D+00
   3   4   2   4   3   4 -0.10178279195824D+04  0.00000000000000D+00
   1   1   3   4   3   4  0.00000000000000D+00  0.00000000000000D+00
   2   1   3   4   3   4  0.00000000000000D+00  0.00000000000000D+00
   3   1   3   4   3   4 -0.17236947445713D+03  0.00000000000000D+00
   1   2   3   4   3   4  0.00000000000000D+00  0.00000000000000D+00
   2   2   3   4   3   4  0.00000000000000D+00  0.00000000000000D+00
   3   2   3   4   3   4  0.14886883062484D+03  0.00000000000000D+00
   1   4   3   4   3   4 -0.10178278869200D+04  0.00000000000000D+00
   2   4   3   4   3   4 -0.10178279208820D+04  0.00000000000000D+00
   3   4   3   4   3   4  0.30534836764674D+04  0.00000000000000D+00

 List of bloks and their characteristics 
  
 2nd derivatives (non-stat.)  - # elements :     171
 qpt  0.00000000E+00  0.00000000E+00  0.00000000E+00   1.0
  
 3rd derivatives              - # elements :     189
 qpt  0.00000000E+00  0.00000000E+00  0.00000000E+00   1.0
      0.00000000E+00  0.00000000E+00  0.00000000E+00   1.0
      0.00000000E+00  0.00000000E+00  0.00000000E+00   1.0
