
.Version 9.2.2 of ABINIT 
.(MPI version, prepared for a arm_darwin20.2.0_gnu10.2 computer) 

.Copyright (C) 1998-2020 ABINIT group . 
 ABINIT comes with ABSOLUTELY NO WARRANTY.
 It is free software, and you are welcome to redistribute it
 under certain conditions (GNU General Public License,
 see ~abinit/COPYING or http://www.gnu.org/copyleft/gpl.txt).

 ABINIT is a project of the Universite Catholique de Louvain,
 Corning Inc. and other collaborators, see ~abinit/doc/developers/contributors.txt .
 Please read https://docs.abinit.org/theory/acknowledgments for suggested
 acknowledgments of the ABINIT effort.
 For more information, see https://www.abinit.org .

.Starting date : Mon  8 Mar 2021.
- ( at 15h35 )
  
- input  file    -> Ph_1.abi
- output file    -> Ph_1.abo
- root for input  files -> Ph_1i
- root for output files -> Ph_1o


 DATASET    1 : space group F-4 3 m (#216); Bravais cF (face-center cubic)
================================================================================
 Values of the parameters that define the memory need for DATASET  1.
     intxc =       0    ionmov =       0      iscf =       7    lmnmax =       6
     lnmax =       6     mgfft =      40  mpssoang =       3    mqgrid =    3001
     natom =       2  nloc_mem =       1    nspden =       1   nspinor =       1
    nsppol =       1      nsym =      24    n1xccc =       0    ntypat =       2
    occopt =       1   xclevel =       1
-    mband =           4        mffmem =           1         mkmem =           2
       mpw =        2613          nfft =       64000          nkpt =          10
================================================================================
P This job should need less than                      19.354 Mbytes of memory.
  Rough estimation (10% accuracy) of disk space for files :
_ WF disk file :      1.597 Mbytes ; DEN or POT disk file :      0.490 Mbytes.
================================================================================


 DATASET    2 : space group F-4 3 m (#216); Bravais cF (face-center cubic)
================================================================================
 Values of the parameters that define the memory need for DATASET  2 (RF).
     intxc =       0      iscf =      -3    lmnmax =       6     lnmax =       6
     mgfft =      40  mpssoang =       3    mqgrid =    3001     natom =       2
  nloc_mem =       1    nspden =       1   nspinor =       1    nsppol =       1
      nsym =      24    n1xccc =       0    ntypat =       2    occopt =       1
   xclevel =       1
-    mband =           4        mffmem =           1         mkmem =          16
-   mkqmem =          16        mk1mem =          16           mpw =        2613
      nfft =       64000          nkpt =         128
================================================================================
P This job should need less than                      23.531 Mbytes of memory.
  Rough estimation (10% accuracy) of disk space for files :
_ WF disk file :     20.416 Mbytes ; DEN or POT disk file :      0.490 Mbytes.
================================================================================


 DATASET    3 : space group F-4 3 m (#216); Bravais cF (face-center cubic)
================================================================================
 Values of the parameters that define the memory need for DATASET  3 (RF).
     intxc =       0      iscf =       7    lmnmax =       6     lnmax =       6
     mgfft =      40  mpssoang =       3    mqgrid =    3001     natom =       2
  nloc_mem =       1    nspden =       1   nspinor =       1    nsppol =       1
      nsym =      24    n1xccc =       0    ntypat =       2    occopt =       1
   xclevel =       1
-    mband =           4        mffmem =           1         mkmem =          16
-   mkqmem =          16        mk1mem =          16           mpw =        2613
      nfft =       64000          nkpt =         128
================================================================================
P This job should need less than                      24.019 Mbytes of memory.
  Rough estimation (10% accuracy) of disk space for files :
_ WF disk file :     20.416 Mbytes ; DEN or POT disk file :      0.490 Mbytes.
================================================================================


 DATASET    4 : space group F-4 3 m (#216); Bravais cF (face-center cubic)
================================================================================
 Values of the parameters that define the memory need for DATASET  4 (RF).
     intxc =       0      iscf =       7    lmnmax =       6     lnmax =       6
     mgfft =      40  mpssoang =       3    mqgrid =    3001     natom =       2
  nloc_mem =       1    nspden =       1   nspinor =       1    nsppol =       1
      nsym =      24    n1xccc =       0    ntypat =       2    occopt =       1
   xclevel =       1
-    mband =           4        mffmem =           1         mkmem =          32
-   mkqmem =          32        mk1mem =          32           mpw =        2613
      nfft =       64000          nkpt =         256
================================================================================
P This job should need less than                      36.167 Mbytes of memory.
  Rough estimation (10% accuracy) of disk space for files :
_ WF disk file :     40.830 Mbytes ; DEN or POT disk file :      0.490 Mbytes.
================================================================================


 DATASET    5 : space group F-4 3 m (#216); Bravais cF (face-center cubic)
================================================================================
 Values of the parameters that define the memory need for DATASET  5 (RF).
     intxc =       0      iscf =       7    lmnmax =       6     lnmax =       6
     mgfft =      40  mpssoang =       3    mqgrid =    3001     natom =       2
  nloc_mem =       1    nspden =       1   nspinor =       1    nsppol =       1
      nsym =      24    n1xccc =       0    ntypat =       2    occopt =       1
   xclevel =       1
-    mband =           4        mffmem =           1         mkmem =          32
-   mkqmem =          32        mk1mem =          32           mpw =        2613
      nfft =       64000          nkpt =         256
================================================================================
P This job should need less than                      36.167 Mbytes of memory.
  Rough estimation (10% accuracy) of disk space for files :
_ WF disk file :     40.830 Mbytes ; DEN or POT disk file :      0.490 Mbytes.
================================================================================


 DATASET    6 : space group F-4 3 m (#216); Bravais cF (face-center cubic)
================================================================================
 Values of the parameters that define the memory need for DATASET  6 (RF).
     intxc =       0      iscf =       7    lmnmax =       6     lnmax =       6
     mgfft =      40  mpssoang =       3    mqgrid =    3001     natom =       2
  nloc_mem =       1    nspden =       1   nspinor =       1    nsppol =       1
      nsym =      24    n1xccc =       0    ntypat =       2    occopt =       1
   xclevel =       1
-    mband =           4        mffmem =           1         mkmem =          32
-   mkqmem =          32        mk1mem =          32           mpw =        2613
      nfft =       64000          nkpt =         256
================================================================================
P This job should need less than                      36.167 Mbytes of memory.
  Rough estimation (10% accuracy) of disk space for files :
_ WF disk file :     40.830 Mbytes ; DEN or POT disk file :      0.490 Mbytes.
================================================================================


 DATASET    7 : space group F-4 3 m (#216); Bravais cF (face-center cubic)
================================================================================
 Values of the parameters that define the memory need for DATASET  7 (RF).
     intxc =       0      iscf =       7    lmnmax =       6     lnmax =       6
     mgfft =      40  mpssoang =       3    mqgrid =    3001     natom =       2
  nloc_mem =       1    nspden =       1   nspinor =       1    nsppol =       1
      nsym =      24    n1xccc =       0    ntypat =       2    occopt =       1
   xclevel =       1
-    mband =           4        mffmem =           1         mkmem =          32
-   mkqmem =          32        mk1mem =          32           mpw =        2613
      nfft =       64000          nkpt =         256
================================================================================
P This job should need less than                      36.167 Mbytes of memory.
  Rough estimation (10% accuracy) of disk space for files :
_ WF disk file :     40.830 Mbytes ; DEN or POT disk file :      0.490 Mbytes.
================================================================================


 DATASET    8 : space group F-4 3 m (#216); Bravais cF (face-center cubic)
================================================================================
 Values of the parameters that define the memory need for DATASET  8 (RF).
     intxc =       0      iscf =       7    lmnmax =       6     lnmax =       6
     mgfft =      40  mpssoang =       3    mqgrid =    3001     natom =       2
  nloc_mem =       1    nspden =       1   nspinor =       1    nsppol =       1
      nsym =      24    n1xccc =       0    ntypat =       2    occopt =       1
   xclevel =       1
-    mband =           4        mffmem =           1         mkmem =          32
-   mkqmem =          32        mk1mem =          32           mpw =        2613
      nfft =       64000          nkpt =         256
================================================================================
P This job should need less than                      36.167 Mbytes of memory.
  Rough estimation (10% accuracy) of disk space for files :
_ WF disk file :     40.830 Mbytes ; DEN or POT disk file :      0.490 Mbytes.
================================================================================


 DATASET    9 : space group F-4 3 m (#216); Bravais cF (face-center cubic)
================================================================================
 Values of the parameters that define the memory need for DATASET  9 (RF).
     intxc =       0      iscf =       7    lmnmax =       6     lnmax =       6
     mgfft =      40  mpssoang =       3    mqgrid =    3001     natom =       2
  nloc_mem =       1    nspden =       1   nspinor =       1    nsppol =       1
      nsym =      24    n1xccc =       0    ntypat =       2    occopt =       1
   xclevel =       1
-    mband =           4        mffmem =           1         mkmem =          32
-   mkqmem =          32        mk1mem =          32           mpw =        2613
      nfft =       64000          nkpt =         256
================================================================================
P This job should need less than                      36.167 Mbytes of memory.
  Rough estimation (10% accuracy) of disk space for files :
_ WF disk file :     40.830 Mbytes ; DEN or POT disk file :      0.490 Mbytes.
================================================================================


 DATASET   10 : space group F-4 3 m (#216); Bravais cF (face-center cubic)
================================================================================
 Values of the parameters that define the memory need for DATASET 10 (RF).
     intxc =       0      iscf =       7    lmnmax =       6     lnmax =       6
     mgfft =      40  mpssoang =       3    mqgrid =    3001     natom =       2
  nloc_mem =       1    nspden =       1   nspinor =       1    nsppol =       1
      nsym =      24    n1xccc =       0    ntypat =       2    occopt =       1
   xclevel =       1
-    mband =           4        mffmem =           1         mkmem =          32
-   mkqmem =          32        mk1mem =          32           mpw =        2613
      nfft =       64000          nkpt =         256
================================================================================
P This job should need less than                      36.167 Mbytes of memory.
  Rough estimation (10% accuracy) of disk space for files :
_ WF disk file :     40.830 Mbytes ; DEN or POT disk file :      0.490 Mbytes.
================================================================================

--------------------------------------------------------------------------------
------------- Echo of variables that govern the present computation ------------
--------------------------------------------------------------------------------
-
- outvars: echo of selected default values                                      
-   iomode0 =  0 , fftalg0 =312 , wfoptalg0 =  0
-
- outvars: echo of global parameters not present in the input file              
-  max_nthreads =    8
-
 -outvars: echo values of preprocessed input variables --------
            acell      1.1992657950E+01  1.1992657950E+01  1.1992657950E+01 Bohr
              amu      1.14820000E+02  1.21753000E+02
           diemac      1.60000000E+01
             ecut      2.50000000E+01 Hartree
-          fftalg         312
           getddk1          0
           getddk2          0
           getddk3          2
           getddk4          0
           getddk5          0
           getddk6          0
           getddk7          0
           getddk8          0
           getddk9          0
           getddk10         0
           getwfk1          0
           getwfk2          1
           getwfk3          1
           getwfk4          1
           getwfk5          1
           getwfk6          1
           getwfk7          1
           getwfk8          1
           getwfk9          1
           getwfk10         1
             iscf1          7
             iscf2         -3
             iscf3          7
             iscf4          7
             iscf5          7
             iscf6          7
             iscf7          7
             iscf8          7
             iscf9          7
             iscf10         7
           jdtset        1    2    3    4    5    6    7    8    9   10
              kpt1    -1.25000000E-01 -2.50000000E-01  0.00000000E+00
                      -1.25000000E-01  5.00000000E-01  0.00000000E+00
                      -2.50000000E-01 -3.75000000E-01  0.00000000E+00
                      -1.25000000E-01 -3.75000000E-01  1.25000000E-01
                      -1.25000000E-01  2.50000000E-01  0.00000000E+00
                      -2.50000000E-01  3.75000000E-01  0.00000000E+00
                      -3.75000000E-01  5.00000000E-01  0.00000000E+00
                      -2.50000000E-01  5.00000000E-01  1.25000000E-01
                      -1.25000000E-01  0.00000000E+00  0.00000000E+00
                      -3.75000000E-01  0.00000000E+00  0.00000000E+00
              kpt2    -1.25000000E-01 -2.50000000E-01  0.00000000E+00
                      -2.50000000E-01 -1.25000000E-01  0.00000000E+00
                      -1.25000000E-01 -1.25000000E-01  1.25000000E-01
                      -1.25000000E-01  5.00000000E-01  0.00000000E+00
                      -2.50000000E-01 -3.75000000E-01  0.00000000E+00
                      -1.25000000E-01 -3.75000000E-01  1.25000000E-01
                      -3.75000000E-01 -2.50000000E-01  0.00000000E+00
                      -2.50000000E-01 -2.50000000E-01  1.25000000E-01
                      -1.25000000E-01 -2.50000000E-01  2.50000000E-01
                       5.00000000E-01 -1.25000000E-01  0.00000000E+00
                      -3.75000000E-01 -1.25000000E-01  1.25000000E-01
                      -2.50000000E-01 -1.25000000E-01  2.50000000E-01
                      -1.25000000E-01 -1.25000000E-01  3.75000000E-01
                      -1.25000000E-01  2.50000000E-01  0.00000000E+00
                      -2.50000000E-01  3.75000000E-01  0.00000000E+00
                      -1.25000000E-01  3.75000000E-01  1.25000000E-01
                      -3.75000000E-01  5.00000000E-01  0.00000000E+00
                      -2.50000000E-01  5.00000000E-01  1.25000000E-01
                      -1.25000000E-01  5.00000000E-01  2.50000000E-01
                       5.00000000E-01 -3.75000000E-01  0.00000000E+00
                      -3.75000000E-01 -3.75000000E-01  1.25000000E-01
                      -2.50000000E-01 -3.75000000E-01  2.50000000E-01
                      -1.25000000E-01 -3.75000000E-01  3.75000000E-01
                       3.75000000E-01 -2.50000000E-01  0.00000000E+00
                       5.00000000E-01 -2.50000000E-01  1.25000000E-01
                      -3.75000000E-01 -2.50000000E-01  2.50000000E-01
                      -2.50000000E-01 -2.50000000E-01  3.75000000E-01
                      -1.25000000E-01 -2.50000000E-01  5.00000000E-01
                       2.50000000E-01 -1.25000000E-01  0.00000000E+00
                       3.75000000E-01 -1.25000000E-01  1.25000000E-01
                       5.00000000E-01 -1.25000000E-01  2.50000000E-01
                      -3.75000000E-01 -1.25000000E-01  3.75000000E-01
                      -2.50000000E-01 -1.25000000E-01  5.00000000E-01
                      -1.25000000E-01 -1.25000000E-01 -3.75000000E-01
                      -1.25000000E-01  0.00000000E+00  0.00000000E+00
                      -1.25000000E-01  1.25000000E-01  1.25000000E-01
                      -2.50000000E-01  2.50000000E-01  1.25000000E-01
                      -1.25000000E-01  2.50000000E-01  2.50000000E-01
                      -3.75000000E-01  3.75000000E-01  1.25000000E-01
                      -2.50000000E-01  3.75000000E-01  2.50000000E-01
                      -1.25000000E-01  3.75000000E-01  3.75000000E-01
                       5.00000000E-01  5.00000000E-01  1.25000000E-01
                      -3.75000000E-01  5.00000000E-01  2.50000000E-01
                      -2.50000000E-01  5.00000000E-01  3.75000000E-01
                      -1.25000000E-01  5.00000000E-01  5.00000000E-01
                       3.75000000E-01 -3.75000000E-01  1.25000000E-01
                       5.00000000E-01 -3.75000000E-01  2.50000000E-01
                      -3.75000000E-01 -3.75000000E-01  3.75000000E-01
                      -2.50000000E-01 -3.75000000E-01  5.00000000E-01
                      -1.25000000E-01 -3.75000000E-01 -3.75000000E-01
              kpt3    -1.25000000E-01 -2.50000000E-01  0.00000000E+00
                      -2.50000000E-01 -1.25000000E-01  0.00000000E+00
                      -1.25000000E-01 -1.25000000E-01  1.25000000E-01
                      -1.25000000E-01  5.00000000E-01  0.00000000E+00
                      -2.50000000E-01 -3.75000000E-01  0.00000000E+00
                      -1.25000000E-01 -3.75000000E-01  1.25000000E-01
                      -3.75000000E-01 -2.50000000E-01  0.00000000E+00
                      -2.50000000E-01 -2.50000000E-01  1.25000000E-01
                      -1.25000000E-01 -2.50000000E-01  2.50000000E-01
                       5.00000000E-01 -1.25000000E-01  0.00000000E+00
                      -3.75000000E-01 -1.25000000E-01  1.25000000E-01
                      -2.50000000E-01 -1.25000000E-01  2.50000000E-01
                      -1.25000000E-01 -1.25000000E-01  3.75000000E-01
                      -1.25000000E-01  2.50000000E-01  0.00000000E+00
                      -2.50000000E-01  3.75000000E-01  0.00000000E+00
                      -1.25000000E-01  3.75000000E-01  1.25000000E-01
                      -3.75000000E-01  5.00000000E-01  0.00000000E+00
                      -2.50000000E-01  5.00000000E-01  1.25000000E-01
                      -1.25000000E-01  5.00000000E-01  2.50000000E-01
                       5.00000000E-01 -3.75000000E-01  0.00000000E+00
                      -3.75000000E-01 -3.75000000E-01  1.25000000E-01
                      -2.50000000E-01 -3.75000000E-01  2.50000000E-01
                      -1.25000000E-01 -3.75000000E-01  3.75000000E-01
                       3.75000000E-01 -2.50000000E-01  0.00000000E+00
                       5.00000000E-01 -2.50000000E-01  1.25000000E-01
                      -3.75000000E-01 -2.50000000E-01  2.50000000E-01
                      -2.50000000E-01 -2.50000000E-01  3.75000000E-01
                      -1.25000000E-01 -2.50000000E-01  5.00000000E-01
                       2.50000000E-01 -1.25000000E-01  0.00000000E+00
                       3.75000000E-01 -1.25000000E-01  1.25000000E-01
                       5.00000000E-01 -1.25000000E-01  2.50000000E-01
                      -3.75000000E-01 -1.25000000E-01  3.75000000E-01
                      -2.50000000E-01 -1.25000000E-01  5.00000000E-01
                      -1.25000000E-01 -1.25000000E-01 -3.75000000E-01
                      -1.25000000E-01  0.00000000E+00  0.00000000E+00
                      -1.25000000E-01  1.25000000E-01  1.25000000E-01
                      -2.50000000E-01  2.50000000E-01  1.25000000E-01
                      -1.25000000E-01  2.50000000E-01  2.50000000E-01
                      -3.75000000E-01  3.75000000E-01  1.25000000E-01
                      -2.50000000E-01  3.75000000E-01  2.50000000E-01
                      -1.25000000E-01  3.75000000E-01  3.75000000E-01
                       5.00000000E-01  5.00000000E-01  1.25000000E-01
                      -3.75000000E-01  5.00000000E-01  2.50000000E-01
                      -2.50000000E-01  5.00000000E-01  3.75000000E-01
                      -1.25000000E-01  5.00000000E-01  5.00000000E-01
                       3.75000000E-01 -3.75000000E-01  1.25000000E-01
                       5.00000000E-01 -3.75000000E-01  2.50000000E-01
                      -3.75000000E-01 -3.75000000E-01  3.75000000E-01
                      -2.50000000E-01 -3.75000000E-01  5.00000000E-01
                      -1.25000000E-01 -3.75000000E-01 -3.75000000E-01
              kpt4    -1.25000000E-01 -2.50000000E-01  0.00000000E+00
                      -2.50000000E-01 -1.25000000E-01  0.00000000E+00
                      -1.25000000E-01 -1.25000000E-01  1.25000000E-01
                      -1.25000000E-01  5.00000000E-01  0.00000000E+00
                      -2.50000000E-01 -3.75000000E-01  0.00000000E+00
                      -1.25000000E-01 -3.75000000E-01  1.25000000E-01
                      -3.75000000E-01 -2.50000000E-01  0.00000000E+00
                      -2.50000000E-01 -2.50000000E-01  1.25000000E-01
                      -1.25000000E-01 -2.50000000E-01  2.50000000E-01
                       5.00000000E-01 -1.25000000E-01  0.00000000E+00
                      -3.75000000E-01 -1.25000000E-01  1.25000000E-01
                      -2.50000000E-01 -1.25000000E-01  2.50000000E-01
                      -1.25000000E-01 -1.25000000E-01  3.75000000E-01
                      -1.25000000E-01  2.50000000E-01  0.00000000E+00
                      -2.50000000E-01  3.75000000E-01  0.00000000E+00
                      -1.25000000E-01  3.75000000E-01  1.25000000E-01
                      -3.75000000E-01  5.00000000E-01  0.00000000E+00
                      -2.50000000E-01  5.00000000E-01  1.25000000E-01
                      -1.25000000E-01  5.00000000E-01  2.50000000E-01
                       5.00000000E-01 -3.75000000E-01  0.00000000E+00
                      -3.75000000E-01 -3.75000000E-01  1.25000000E-01
                      -2.50000000E-01 -3.75000000E-01  2.50000000E-01
                      -1.25000000E-01 -3.75000000E-01  3.75000000E-01
                       3.75000000E-01 -2.50000000E-01  0.00000000E+00
                       5.00000000E-01 -2.50000000E-01  1.25000000E-01
                      -3.75000000E-01 -2.50000000E-01  2.50000000E-01
                      -2.50000000E-01 -2.50000000E-01  3.75000000E-01
                      -1.25000000E-01 -2.50000000E-01  5.00000000E-01
                       2.50000000E-01 -1.25000000E-01  0.00000000E+00
                       3.75000000E-01 -1.25000000E-01  1.25000000E-01
                       5.00000000E-01 -1.25000000E-01  2.50000000E-01
                      -3.75000000E-01 -1.25000000E-01  3.75000000E-01
                      -2.50000000E-01 -1.25000000E-01  5.00000000E-01
                      -1.25000000E-01 -1.25000000E-01 -3.75000000E-01
                      -1.25000000E-01  0.00000000E+00  0.00000000E+00
                      -2.50000000E-01  1.25000000E-01  0.00000000E+00
                      -1.25000000E-01  1.25000000E-01  1.25000000E-01
                      -3.75000000E-01  2.50000000E-01  0.00000000E+00
                      -2.50000000E-01  2.50000000E-01  1.25000000E-01
                      -1.25000000E-01  2.50000000E-01  2.50000000E-01
                       5.00000000E-01  3.75000000E-01  0.00000000E+00
                      -3.75000000E-01  3.75000000E-01  1.25000000E-01
                      -2.50000000E-01  3.75000000E-01  2.50000000E-01
                      -1.25000000E-01  3.75000000E-01  3.75000000E-01
                       3.75000000E-01  5.00000000E-01  0.00000000E+00
                       5.00000000E-01  5.00000000E-01  1.25000000E-01
                      -3.75000000E-01  5.00000000E-01  2.50000000E-01
                      -2.50000000E-01  5.00000000E-01  3.75000000E-01
                      -1.25000000E-01  5.00000000E-01  5.00000000E-01
                       2.50000000E-01 -3.75000000E-01  0.00000000E+00
              kpt5    -1.25000000E-01 -2.50000000E-01  0.00000000E+00
                      -2.50000000E-01 -1.25000000E-01  0.00000000E+00
                      -1.25000000E-01 -1.25000000E-01  1.25000000E-01
                      -1.25000000E-01  5.00000000E-01  0.00000000E+00
                      -2.50000000E-01 -3.75000000E-01  0.00000000E+00
                      -1.25000000E-01 -3.75000000E-01  1.25000000E-01
                      -3.75000000E-01 -2.50000000E-01  0.00000000E+00
                      -2.50000000E-01 -2.50000000E-01  1.25000000E-01
                      -1.25000000E-01 -2.50000000E-01  2.50000000E-01
                       5.00000000E-01 -1.25000000E-01  0.00000000E+00
                      -3.75000000E-01 -1.25000000E-01  1.25000000E-01
                      -2.50000000E-01 -1.25000000E-01  2.50000000E-01
                      -1.25000000E-01 -1.25000000E-01  3.75000000E-01
                      -1.25000000E-01  2.50000000E-01  0.00000000E+00
                      -2.50000000E-01  3.75000000E-01  0.00000000E+00
                      -1.25000000E-01  3.75000000E-01  1.25000000E-01
                      -3.75000000E-01  5.00000000E-01  0.00000000E+00
                      -2.50000000E-01  5.00000000E-01  1.25000000E-01
                      -1.25000000E-01  5.00000000E-01  2.50000000E-01
                       5.00000000E-01 -3.75000000E-01  0.00000000E+00
                      -3.75000000E-01 -3.75000000E-01  1.25000000E-01
                      -2.50000000E-01 -3.75000000E-01  2.50000000E-01
                      -1.25000000E-01 -3.75000000E-01  3.75000000E-01
                       3.75000000E-01 -2.50000000E-01  0.00000000E+00
                       5.00000000E-01 -2.50000000E-01  1.25000000E-01
                      -3.75000000E-01 -2.50000000E-01  2.50000000E-01
                      -2.50000000E-01 -2.50000000E-01  3.75000000E-01
                      -1.25000000E-01 -2.50000000E-01  5.00000000E-01
                       2.50000000E-01 -1.25000000E-01  0.00000000E+00
                       3.75000000E-01 -1.25000000E-01  1.25000000E-01
                       5.00000000E-01 -1.25000000E-01  2.50000000E-01
                      -3.75000000E-01 -1.25000000E-01  3.75000000E-01
                      -2.50000000E-01 -1.25000000E-01  5.00000000E-01
                      -1.25000000E-01 -1.25000000E-01 -3.75000000E-01
                      -1.25000000E-01  0.00000000E+00  0.00000000E+00
                      -2.50000000E-01  1.25000000E-01  0.00000000E+00
                      -1.25000000E-01  1.25000000E-01  1.25000000E-01
                      -3.75000000E-01  2.50000000E-01  0.00000000E+00
                      -2.50000000E-01  2.50000000E-01  1.25000000E-01
                      -1.25000000E-01  2.50000000E-01  2.50000000E-01
                       5.00000000E-01  3.75000000E-01  0.00000000E+00
                      -3.75000000E-01  3.75000000E-01  1.25000000E-01
                      -2.50000000E-01  3.75000000E-01  2.50000000E-01
                      -1.25000000E-01  3.75000000E-01  3.75000000E-01
                       3.75000000E-01  5.00000000E-01  0.00000000E+00
                       5.00000000E-01  5.00000000E-01  1.25000000E-01
                      -3.75000000E-01  5.00000000E-01  2.50000000E-01
                      -2.50000000E-01  5.00000000E-01  3.75000000E-01
                      -1.25000000E-01  5.00000000E-01  5.00000000E-01
                       2.50000000E-01 -3.75000000E-01  0.00000000E+00
              kpt6    -1.25000000E-01 -2.50000000E-01  0.00000000E+00
                      -2.50000000E-01 -1.25000000E-01  0.00000000E+00
                      -1.25000000E-01 -1.25000000E-01  1.25000000E-01
                      -1.25000000E-01  5.00000000E-01  0.00000000E+00
                      -2.50000000E-01 -3.75000000E-01  0.00000000E+00
                      -1.25000000E-01 -3.75000000E-01  1.25000000E-01
                      -3.75000000E-01 -2.50000000E-01  0.00000000E+00
                      -2.50000000E-01 -2.50000000E-01  1.25000000E-01
                      -1.25000000E-01 -2.50000000E-01  2.50000000E-01
                       5.00000000E-01 -1.25000000E-01  0.00000000E+00
                      -3.75000000E-01 -1.25000000E-01  1.25000000E-01
                      -2.50000000E-01 -1.25000000E-01  2.50000000E-01
                      -1.25000000E-01 -1.25000000E-01  3.75000000E-01
                      -1.25000000E-01  2.50000000E-01  0.00000000E+00
                      -2.50000000E-01  3.75000000E-01  0.00000000E+00
                      -1.25000000E-01  3.75000000E-01  1.25000000E-01
                      -3.75000000E-01  5.00000000E-01  0.00000000E+00
                      -2.50000000E-01  5.00000000E-01  1.25000000E-01
                      -1.25000000E-01  5.00000000E-01  2.50000000E-01
                       5.00000000E-01 -3.75000000E-01  0.00000000E+00
                      -3.75000000E-01 -3.75000000E-01  1.25000000E-01
                      -2.50000000E-01 -3.75000000E-01  2.50000000E-01
                      -1.25000000E-01 -3.75000000E-01  3.75000000E-01
                       3.75000000E-01 -2.50000000E-01  0.00000000E+00
                       5.00000000E-01 -2.50000000E-01  1.25000000E-01
                      -3.75000000E-01 -2.50000000E-01  2.50000000E-01
                      -2.50000000E-01 -2.50000000E-01  3.75000000E-01
                      -1.25000000E-01 -2.50000000E-01  5.00000000E-01
                       2.50000000E-01 -1.25000000E-01  0.00000000E+00
                       3.75000000E-01 -1.25000000E-01  1.25000000E-01
                       5.00000000E-01 -1.25000000E-01  2.50000000E-01
                      -3.75000000E-01 -1.25000000E-01  3.75000000E-01
                      -2.50000000E-01 -1.25000000E-01  5.00000000E-01
                      -1.25000000E-01 -1.25000000E-01 -3.75000000E-01
                      -1.25000000E-01  0.00000000E+00  0.00000000E+00
                      -2.50000000E-01  1.25000000E-01  0.00000000E+00
                      -1.25000000E-01  1.25000000E-01  1.25000000E-01
                      -3.75000000E-01  2.50000000E-01  0.00000000E+00
                      -2.50000000E-01  2.50000000E-01  1.25000000E-01
                      -1.25000000E-01  2.50000000E-01  2.50000000E-01
                       5.00000000E-01  3.75000000E-01  0.00000000E+00
                      -3.75000000E-01  3.75000000E-01  1.25000000E-01
                      -2.50000000E-01  3.75000000E-01  2.50000000E-01
                      -1.25000000E-01  3.75000000E-01  3.75000000E-01
                       3.75000000E-01  5.00000000E-01  0.00000000E+00
                       5.00000000E-01  5.00000000E-01  1.25000000E-01
                      -3.75000000E-01  5.00000000E-01  2.50000000E-01
                      -2.50000000E-01  5.00000000E-01  3.75000000E-01
                      -1.25000000E-01  5.00000000E-01  5.00000000E-01
                       2.50000000E-01 -3.75000000E-01  0.00000000E+00
              kpt7    -1.25000000E-01 -2.50000000E-01  0.00000000E+00
                      -2.50000000E-01 -1.25000000E-01  0.00000000E+00
                      -1.25000000E-01 -1.25000000E-01  1.25000000E-01
                      -1.25000000E-01  5.00000000E-01  0.00000000E+00
                      -2.50000000E-01 -3.75000000E-01  0.00000000E+00
                      -1.25000000E-01 -3.75000000E-01  1.25000000E-01
                      -3.75000000E-01 -2.50000000E-01  0.00000000E+00
                      -2.50000000E-01 -2.50000000E-01  1.25000000E-01
                      -1.25000000E-01 -2.50000000E-01  2.50000000E-01
                       5.00000000E-01 -1.25000000E-01  0.00000000E+00
                      -3.75000000E-01 -1.25000000E-01  1.25000000E-01
                      -2.50000000E-01 -1.25000000E-01  2.50000000E-01
                      -1.25000000E-01 -1.25000000E-01  3.75000000E-01
                      -1.25000000E-01  2.50000000E-01  0.00000000E+00
                      -2.50000000E-01  3.75000000E-01  0.00000000E+00
                      -1.25000000E-01  3.75000000E-01  1.25000000E-01
                      -3.75000000E-01  5.00000000E-01  0.00000000E+00
                      -2.50000000E-01  5.00000000E-01  1.25000000E-01
                      -1.25000000E-01  5.00000000E-01  2.50000000E-01
                       5.00000000E-01 -3.75000000E-01  0.00000000E+00
                      -3.75000000E-01 -3.75000000E-01  1.25000000E-01
                      -2.50000000E-01 -3.75000000E-01  2.50000000E-01
                      -1.25000000E-01 -3.75000000E-01  3.75000000E-01
                       3.75000000E-01 -2.50000000E-01  0.00000000E+00
                       5.00000000E-01 -2.50000000E-01  1.25000000E-01
                      -3.75000000E-01 -2.50000000E-01  2.50000000E-01
                      -2.50000000E-01 -2.50000000E-01  3.75000000E-01
                      -1.25000000E-01 -2.50000000E-01  5.00000000E-01
                       2.50000000E-01 -1.25000000E-01  0.00000000E+00
                       3.75000000E-01 -1.25000000E-01  1.25000000E-01
                       5.00000000E-01 -1.25000000E-01  2.50000000E-01
                      -3.75000000E-01 -1.25000000E-01  3.75000000E-01
                      -2.50000000E-01 -1.25000000E-01  5.00000000E-01
                      -1.25000000E-01 -1.25000000E-01 -3.75000000E-01
                      -1.25000000E-01  0.00000000E+00  0.00000000E+00
                      -2.50000000E-01  1.25000000E-01  0.00000000E+00
                      -1.25000000E-01  1.25000000E-01  1.25000000E-01
                      -3.75000000E-01  2.50000000E-01  0.00000000E+00
                      -2.50000000E-01  2.50000000E-01  1.25000000E-01
                      -1.25000000E-01  2.50000000E-01  2.50000000E-01
                       5.00000000E-01  3.75000000E-01  0.00000000E+00
                      -3.75000000E-01  3.75000000E-01  1.25000000E-01
                      -2.50000000E-01  3.75000000E-01  2.50000000E-01
                      -1.25000000E-01  3.75000000E-01  3.75000000E-01
                       3.75000000E-01  5.00000000E-01  0.00000000E+00
                       5.00000000E-01  5.00000000E-01  1.25000000E-01
                      -3.75000000E-01  5.00000000E-01  2.50000000E-01
                      -2.50000000E-01  5.00000000E-01  3.75000000E-01
                      -1.25000000E-01  5.00000000E-01  5.00000000E-01
                       2.50000000E-01 -3.75000000E-01  0.00000000E+00
              kpt8    -1.25000000E-01 -2.50000000E-01  0.00000000E+00
                      -2.50000000E-01 -1.25000000E-01  0.00000000E+00
                      -1.25000000E-01 -1.25000000E-01  1.25000000E-01
                      -1.25000000E-01  5.00000000E-01  0.00000000E+00
                      -2.50000000E-01 -3.75000000E-01  0.00000000E+00
                      -1.25000000E-01 -3.75000000E-01  1.25000000E-01
                      -3.75000000E-01 -2.50000000E-01  0.00000000E+00
                      -2.50000000E-01 -2.50000000E-01  1.25000000E-01
                      -1.25000000E-01 -2.50000000E-01  2.50000000E-01
                       5.00000000E-01 -1.25000000E-01  0.00000000E+00
                      -3.75000000E-01 -1.25000000E-01  1.25000000E-01
                      -2.50000000E-01 -1.25000000E-01  2.50000000E-01
                      -1.25000000E-01 -1.25000000E-01  3.75000000E-01
                      -1.25000000E-01  2.50000000E-01  0.00000000E+00
                      -2.50000000E-01  3.75000000E-01  0.00000000E+00
                      -1.25000000E-01  3.75000000E-01  1.25000000E-01
                      -3.75000000E-01  5.00000000E-01  0.00000000E+00
                      -2.50000000E-01  5.00000000E-01  1.25000000E-01
                      -1.25000000E-01  5.00000000E-01  2.50000000E-01
                       5.00000000E-01 -3.75000000E-01  0.00000000E+00
                      -3.75000000E-01 -3.75000000E-01  1.25000000E-01
                      -2.50000000E-01 -3.75000000E-01  2.50000000E-01
                      -1.25000000E-01 -3.75000000E-01  3.75000000E-01
                       3.75000000E-01 -2.50000000E-01  0.00000000E+00
                       5.00000000E-01 -2.50000000E-01  1.25000000E-01
                      -3.75000000E-01 -2.50000000E-01  2.50000000E-01
                      -2.50000000E-01 -2.50000000E-01  3.75000000E-01
                      -1.25000000E-01 -2.50000000E-01  5.00000000E-01
                       2.50000000E-01 -1.25000000E-01  0.00000000E+00
                       3.75000000E-01 -1.25000000E-01  1.25000000E-01
                       5.00000000E-01 -1.25000000E-01  2.50000000E-01
                      -3.75000000E-01 -1.25000000E-01  3.75000000E-01
                      -2.50000000E-01 -1.25000000E-01  5.00000000E-01
                      -1.25000000E-01 -1.25000000E-01 -3.75000000E-01
                      -1.25000000E-01  0.00000000E+00  0.00000000E+00
                      -2.50000000E-01  1.25000000E-01  0.00000000E+00
                      -1.25000000E-01  1.25000000E-01  1.25000000E-01
                      -3.75000000E-01  2.50000000E-01  0.00000000E+00
                      -2.50000000E-01  2.50000000E-01  1.25000000E-01
                      -1.25000000E-01  2.50000000E-01  2.50000000E-01
                       5.00000000E-01  3.75000000E-01  0.00000000E+00
                      -3.75000000E-01  3.75000000E-01  1.25000000E-01
                      -2.50000000E-01  3.75000000E-01  2.50000000E-01
                      -1.25000000E-01  3.75000000E-01  3.75000000E-01
                       3.75000000E-01  5.00000000E-01  0.00000000E+00
                       5.00000000E-01  5.00000000E-01  1.25000000E-01
                      -3.75000000E-01  5.00000000E-01  2.50000000E-01
                      -2.50000000E-01  5.00000000E-01  3.75000000E-01
                      -1.25000000E-01  5.00000000E-01  5.00000000E-01
                       2.50000000E-01 -3.75000000E-01  0.00000000E+00
              kpt9    -1.25000000E-01 -2.50000000E-01  0.00000000E+00
                      -2.50000000E-01 -1.25000000E-01  0.00000000E+00
                      -1.25000000E-01 -1.25000000E-01  1.25000000E-01
                      -1.25000000E-01  5.00000000E-01  0.00000000E+00
                      -2.50000000E-01 -3.75000000E-01  0.00000000E+00
                      -1.25000000E-01 -3.75000000E-01  1.25000000E-01
                      -3.75000000E-01 -2.50000000E-01  0.00000000E+00
                      -2.50000000E-01 -2.50000000E-01  1.25000000E-01
                      -1.25000000E-01 -2.50000000E-01  2.50000000E-01
                       5.00000000E-01 -1.25000000E-01  0.00000000E+00
                      -3.75000000E-01 -1.25000000E-01  1.25000000E-01
                      -2.50000000E-01 -1.25000000E-01  2.50000000E-01
                      -1.25000000E-01 -1.25000000E-01  3.75000000E-01
                      -1.25000000E-01  2.50000000E-01  0.00000000E+00
                      -2.50000000E-01  3.75000000E-01  0.00000000E+00
                      -1.25000000E-01  3.75000000E-01  1.25000000E-01
                      -3.75000000E-01  5.00000000E-01  0.00000000E+00
                      -2.50000000E-01  5.00000000E-01  1.25000000E-01
                      -1.25000000E-01  5.00000000E-01  2.50000000E-01
                       5.00000000E-01 -3.75000000E-01  0.00000000E+00
                      -3.75000000E-01 -3.75000000E-01  1.25000000E-01
                      -2.50000000E-01 -3.75000000E-01  2.50000000E-01
                      -1.25000000E-01 -3.75000000E-01  3.75000000E-01
                       3.75000000E-01 -2.50000000E-01  0.00000000E+00
                       5.00000000E-01 -2.50000000E-01  1.25000000E-01
                      -3.75000000E-01 -2.50000000E-01  2.50000000E-01
                      -2.50000000E-01 -2.50000000E-01  3.75000000E-01
                      -1.25000000E-01 -2.50000000E-01  5.00000000E-01
                       2.50000000E-01 -1.25000000E-01  0.00000000E+00
                       3.75000000E-01 -1.25000000E-01  1.25000000E-01
                       5.00000000E-01 -1.25000000E-01  2.50000000E-01
                      -3.75000000E-01 -1.25000000E-01  3.75000000E-01
                      -2.50000000E-01 -1.25000000E-01  5.00000000E-01
                      -1.25000000E-01 -1.25000000E-01 -3.75000000E-01
                      -1.25000000E-01  0.00000000E+00  0.00000000E+00
                      -2.50000000E-01  1.25000000E-01  0.00000000E+00
                      -1.25000000E-01  1.25000000E-01  1.25000000E-01
                      -3.75000000E-01  2.50000000E-01  0.00000000E+00
                      -2.50000000E-01  2.50000000E-01  1.25000000E-01
                      -1.25000000E-01  2.50000000E-01  2.50000000E-01
                       5.00000000E-01  3.75000000E-01  0.00000000E+00
                      -3.75000000E-01  3.75000000E-01  1.25000000E-01
                      -2.50000000E-01  3.75000000E-01  2.50000000E-01
                      -1.25000000E-01  3.75000000E-01  3.75000000E-01
                       3.75000000E-01  5.00000000E-01  0.00000000E+00
                       5.00000000E-01  5.00000000E-01  1.25000000E-01
                      -3.75000000E-01  5.00000000E-01  2.50000000E-01
                      -2.50000000E-01  5.00000000E-01  3.75000000E-01
                      -1.25000000E-01  5.00000000E-01  5.00000000E-01
                       2.50000000E-01 -3.75000000E-01  0.00000000E+00
              kpt10   -1.25000000E-01 -2.50000000E-01  0.00000000E+00
                      -2.50000000E-01 -1.25000000E-01  0.00000000E+00
                      -1.25000000E-01 -1.25000000E-01  1.25000000E-01
                      -1.25000000E-01  5.00000000E-01  0.00000000E+00
                      -2.50000000E-01 -3.75000000E-01  0.00000000E+00
                      -1.25000000E-01 -3.75000000E-01  1.25000000E-01
                      -3.75000000E-01 -2.50000000E-01  0.00000000E+00
                      -2.50000000E-01 -2.50000000E-01  1.25000000E-01
                      -1.25000000E-01 -2.50000000E-01  2.50000000E-01
                       5.00000000E-01 -1.25000000E-01  0.00000000E+00
                      -3.75000000E-01 -1.25000000E-01  1.25000000E-01
                      -2.50000000E-01 -1.25000000E-01  2.50000000E-01
                      -1.25000000E-01 -1.25000000E-01  3.75000000E-01
                      -1.25000000E-01  2.50000000E-01  0.00000000E+00
                      -2.50000000E-01  3.75000000E-01  0.00000000E+00
                      -1.25000000E-01  3.75000000E-01  1.25000000E-01
                      -3.75000000E-01  5.00000000E-01  0.00000000E+00
                      -2.50000000E-01  5.00000000E-01  1.25000000E-01
                      -1.25000000E-01  5.00000000E-01  2.50000000E-01
                       5.00000000E-01 -3.75000000E-01  0.00000000E+00
                      -3.75000000E-01 -3.75000000E-01  1.25000000E-01
                      -2.50000000E-01 -3.75000000E-01  2.50000000E-01
                      -1.25000000E-01 -3.75000000E-01  3.75000000E-01
                       3.75000000E-01 -2.50000000E-01  0.00000000E+00
                       5.00000000E-01 -2.50000000E-01  1.25000000E-01
                      -3.75000000E-01 -2.50000000E-01  2.50000000E-01
                      -2.50000000E-01 -2.50000000E-01  3.75000000E-01
                      -1.25000000E-01 -2.50000000E-01  5.00000000E-01
                       2.50000000E-01 -1.25000000E-01  0.00000000E+00
                       3.75000000E-01 -1.25000000E-01  1.25000000E-01
                       5.00000000E-01 -1.25000000E-01  2.50000000E-01
                      -3.75000000E-01 -1.25000000E-01  3.75000000E-01
                      -2.50000000E-01 -1.25000000E-01  5.00000000E-01
                      -1.25000000E-01 -1.25000000E-01 -3.75000000E-01
                      -1.25000000E-01  0.00000000E+00  0.00000000E+00
                      -2.50000000E-01  1.25000000E-01  0.00000000E+00
                      -1.25000000E-01  1.25000000E-01  1.25000000E-01
                      -3.75000000E-01  2.50000000E-01  0.00000000E+00
                      -2.50000000E-01  2.50000000E-01  1.25000000E-01
                      -1.25000000E-01  2.50000000E-01  2.50000000E-01
                       5.00000000E-01  3.75000000E-01  0.00000000E+00
                      -3.75000000E-01  3.75000000E-01  1.25000000E-01
                      -2.50000000E-01  3.75000000E-01  2.50000000E-01
                      -1.25000000E-01  3.75000000E-01  3.75000000E-01
                       3.75000000E-01  5.00000000E-01  0.00000000E+00
                       5.00000000E-01  5.00000000E-01  1.25000000E-01
                      -3.75000000E-01  5.00000000E-01  2.50000000E-01
                      -2.50000000E-01  5.00000000E-01  3.75000000E-01
                      -1.25000000E-01  5.00000000E-01  5.00000000E-01
                       2.50000000E-01 -3.75000000E-01  0.00000000E+00
                       outvar_i_n : Printing only first  50 k-points.
           kptopt1          1
           kptopt2          2
           kptopt3          2
           kptopt4          3
           kptopt5          3
           kptopt6          3
           kptopt7          3
           kptopt8          3
           kptopt9          3
           kptopt10         3
         kptrlatt        4   -4    4     -4    4    4     -4   -4    4
          kptrlen      4.79706318E+01
P           mkmem1          2
P           mkmem2         16
P           mkmem3         16
P           mkmem4         32
P           mkmem5         32
P           mkmem6         32
P           mkmem7         32
P           mkmem8         32
P           mkmem9         32
P           mkmem10        32
P          mkqmem1          2
P          mkqmem2         16
P          mkqmem3         16
P          mkqmem4         32
P          mkqmem5         32
P          mkqmem6         32
P          mkqmem7         32
P          mkqmem8         32
P          mkqmem9         32
P          mkqmem10        32
P          mk1mem1          2
P          mk1mem2         16
P          mk1mem3         16
P          mk1mem4         32
P          mk1mem5         32
P          mk1mem6         32
P          mk1mem7         32
P          mk1mem8         32
P          mk1mem9         32
P          mk1mem10        32
            natom           2
            nband1          4
            nband2          4
            nband3          4
            nband4          4
            nband5          4
            nband6          4
            nband7          4
            nband8          4
            nband9          4
            nband10         4
           ndtset          10
            ngfft          40      40      40
             nkpt1         10
             nkpt2        128
             nkpt3        128
             nkpt4        256
             nkpt5        256
             nkpt6        256
             nkpt7        256
             nkpt8        256
             nkpt9        256
             nkpt10       256
             nqpt1          0
             nqpt2          1
             nqpt3          1
             nqpt4          1
             nqpt5          1
             nqpt6          1
             nqpt7          1
             nqpt8          1
             nqpt9          1
             nqpt10         1
            nstep         100
             nsym          24
           ntypat           2
              occ1     2.000000  2.000000  2.000000  2.000000
              occ2     2.000000  2.000000  2.000000  2.000000
              occ3     2.000000  2.000000  2.000000  2.000000
              occ4     2.000000  2.000000  2.000000  2.000000
              occ5     2.000000  2.000000  2.000000  2.000000
              occ6     2.000000  2.000000  2.000000  2.000000
              occ7     2.000000  2.000000  2.000000  2.000000
              occ8     2.000000  2.000000  2.000000  2.000000
              occ9     2.000000  2.000000  2.000000  2.000000
              occ10    2.000000  2.000000  2.000000  2.000000
        optdriver1          0
        optdriver2          1
        optdriver3          1
        optdriver4          1
        optdriver5          1
        optdriver6          1
        optdriver7          1
        optdriver8          1
        optdriver9          1
        optdriver10         1
              qpt1     0.00000000E+00  0.00000000E+00  0.00000000E+00
              qpt2     0.00000000E+00  0.00000000E+00  0.00000000E+00
              qpt3     0.00000000E+00  0.00000000E+00  0.00000000E+00
              qpt4     2.50000000E-01  0.00000000E+00  0.00000000E+00
              qpt5     5.00000000E-01  0.00000000E+00  0.00000000E+00
              qpt6     2.50000000E-01  2.50000000E-01  0.00000000E+00
              qpt7     5.00000000E-01  2.50000000E-01  0.00000000E+00
              qpt8    -2.50000000E-01  2.50000000E-01  0.00000000E+00
              qpt9     5.00000000E-01  5.00000000E-01  0.00000000E+00
              qpt10   -2.50000000E-01  5.00000000E-01  2.50000000E-01
          rfatpol           1       2
            rfdir           1       1       1
           rfelfd1          0
           rfelfd2          2
           rfelfd3          3
           rfelfd4          0
           rfelfd5          0
           rfelfd6          0
           rfelfd7          0
           rfelfd8          0
           rfelfd9          0
           rfelfd10         0
           rfphon1          0
           rfphon2          0
           rfphon3          1
           rfphon4          1
           rfphon5          1
           rfphon6          1
           rfphon7          1
           rfphon8          1
           rfphon9          1
           rfphon10         1
            rprim      0.0000000000E+00  5.0000000000E-01  5.0000000000E-01
                       5.0000000000E-01  0.0000000000E+00  5.0000000000E-01
                       5.0000000000E-01  5.0000000000E-01  0.0000000000E+00
           shiftk      5.00000000E-01  5.00000000E-01  5.00000000E-01
          spgroup         216
           symrel      1  0  0   0  1  0   0  0  1       0 -1  1   0 -1  0   1 -1  0
                      -1  0  0  -1  0  1  -1  1  0       0  1 -1   1  0 -1   0  0 -1
                      -1  0  0  -1  1  0  -1  0  1       0 -1  1   1 -1  0   0 -1  0
                       1  0  0   0  0  1   0  1  0       0  1 -1   0  0 -1   1  0 -1
                      -1  0  1  -1  1  0  -1  0  0       0 -1  0   1 -1  0   0 -1  1
                       1  0 -1   0  0 -1   0  1 -1       0  1  0   0  0  1   1  0  0
                       1  0 -1   0  1 -1   0  0 -1       0 -1  0   0 -1  1   1 -1  0
                      -1  0  1  -1  0  0  -1  1  0       0  1  0   1  0  0   0  0  1
                       0  0 -1   0  1 -1   1  0 -1       1 -1  0   0 -1  1   0 -1  0
                       0  0  1   1  0  0   0  1  0      -1  1  0  -1  0  0  -1  0  1
                       0  0  1   0  1  0   1  0  0       1 -1  0   0 -1  0   0 -1  1
                       0  0 -1   1  0 -1   0  1 -1      -1  1  0  -1  0  1  -1  0  0
           tolvrs1     1.00000000E-12
           tolvrs2     0.00000000E+00
           tolvrs3     1.00000000E-12
           tolvrs4     1.00000000E-12
           tolvrs5     1.00000000E-12
           tolvrs6     1.00000000E-12
           tolvrs7     1.00000000E-12
           tolvrs8     1.00000000E-12
           tolvrs9     1.00000000E-12
           tolvrs10    1.00000000E-12
           tolwfr1     0.00000000E+00
           tolwfr2     1.00000000E-22
           tolwfr3     0.00000000E+00
           tolwfr4     0.00000000E+00
           tolwfr5     0.00000000E+00
           tolwfr6     0.00000000E+00
           tolwfr7     0.00000000E+00
           tolwfr8     0.00000000E+00
           tolwfr9     0.00000000E+00
           tolwfr10    0.00000000E+00
            typat      1  2
              wtk1       0.09375    0.09375    0.09375    0.18750    0.09375    0.09375
                         0.09375    0.18750    0.03125    0.03125
              wtk2       0.00781    0.00781    0.00781    0.00781    0.00781    0.00781
                         0.00781    0.00781    0.00781    0.00781    0.00781    0.00781
                         0.00781    0.00781    0.00781    0.00781    0.00781    0.00781
                         0.00781    0.00781    0.00781    0.00781    0.00781    0.00781
                         0.00781    0.00781    0.00781    0.00781    0.00781    0.00781
                         0.00781    0.00781    0.00781    0.00781    0.00781    0.00781
                         0.00781    0.00781    0.00781    0.00781    0.00781    0.00781
                         0.00781    0.00781    0.00781    0.00781    0.00781    0.00781
                         0.00781    0.00781
              wtk3       0.00781    0.00781    0.00781    0.00781    0.00781    0.00781
                         0.00781    0.00781    0.00781    0.00781    0.00781    0.00781
                         0.00781    0.00781    0.00781    0.00781    0.00781    0.00781
                         0.00781    0.00781    0.00781    0.00781    0.00781    0.00781
                         0.00781    0.00781    0.00781    0.00781    0.00781    0.00781
                         0.00781    0.00781    0.00781    0.00781    0.00781    0.00781
                         0.00781    0.00781    0.00781    0.00781    0.00781    0.00781
                         0.00781    0.00781    0.00781    0.00781    0.00781    0.00781
                         0.00781    0.00781
              wtk4       0.00391    0.00391    0.00391    0.00391    0.00391    0.00391
                         0.00391    0.00391    0.00391    0.00391    0.00391    0.00391
                         0.00391    0.00391    0.00391    0.00391    0.00391    0.00391
                         0.00391    0.00391    0.00391    0.00391    0.00391    0.00391
                         0.00391    0.00391    0.00391    0.00391    0.00391    0.00391
                         0.00391    0.00391    0.00391    0.00391    0.00391    0.00391
                         0.00391    0.00391    0.00391    0.00391    0.00391    0.00391
                         0.00391    0.00391    0.00391    0.00391    0.00391    0.00391
                         0.00391    0.00391
              wtk5       0.00391    0.00391    0.00391    0.00391    0.00391    0.00391
                         0.00391    0.00391    0.00391    0.00391    0.00391    0.00391
                         0.00391    0.00391    0.00391    0.00391    0.00391    0.00391
                         0.00391    0.00391    0.00391    0.00391    0.00391    0.00391
                         0.00391    0.00391    0.00391    0.00391    0.00391    0.00391
                         0.00391    0.00391    0.00391    0.00391    0.00391    0.00391
                         0.00391    0.00391    0.00391    0.00391    0.00391    0.00391
                         0.00391    0.00391    0.00391    0.00391    0.00391    0.00391
                         0.00391    0.00391
              wtk6       0.00391    0.00391    0.00391    0.00391    0.00391    0.00391
                         0.00391    0.00391    0.00391    0.00391    0.00391    0.00391
                         0.00391    0.00391    0.00391    0.00391    0.00391    0.00391
                         0.00391    0.00391    0.00391    0.00391    0.00391    0.00391
                         0.00391    0.00391    0.00391    0.00391    0.00391    0.00391
                         0.00391    0.00391    0.00391    0.00391    0.00391    0.00391
                         0.00391    0.00391    0.00391    0.00391    0.00391    0.00391
                         0.00391    0.00391    0.00391    0.00391    0.00391    0.00391
                         0.00391    0.00391
              wtk7       0.00391    0.00391    0.00391    0.00391    0.00391    0.00391
                         0.00391    0.00391    0.00391    0.00391    0.00391    0.00391
                         0.00391    0.00391    0.00391    0.00391    0.00391    0.00391
                         0.00391    0.00391    0.00391    0.00391    0.00391    0.00391
                         0.00391    0.00391    0.00391    0.00391    0.00391    0.00391
                         0.00391    0.00391    0.00391    0.00391    0.00391    0.00391
                         0.00391    0.00391    0.00391    0.00391    0.00391    0.00391
                         0.00391    0.00391    0.00391    0.00391    0.00391    0.00391
                         0.00391    0.00391
              wtk8       0.00391    0.00391    0.00391    0.00391    0.00391    0.00391
                         0.00391    0.00391    0.00391    0.00391    0.00391    0.00391
                         0.00391    0.00391    0.00391    0.00391    0.00391    0.00391
                         0.00391    0.00391    0.00391    0.00391    0.00391    0.00391
                         0.00391    0.00391    0.00391    0.00391    0.00391    0.00391
                         0.00391    0.00391    0.00391    0.00391    0.00391    0.00391
                         0.00391    0.00391    0.00391    0.00391    0.00391    0.00391
                         0.00391    0.00391    0.00391    0.00391    0.00391    0.00391
                         0.00391    0.00391
              wtk9       0.00391    0.00391    0.00391    0.00391    0.00391    0.00391
                         0.00391    0.00391    0.00391    0.00391    0.00391    0.00391
                         0.00391    0.00391    0.00391    0.00391    0.00391    0.00391
                         0.00391    0.00391    0.00391    0.00391    0.00391    0.00391
                         0.00391    0.00391    0.00391    0.00391    0.00391    0.00391
                         0.00391    0.00391    0.00391    0.00391    0.00391    0.00391
                         0.00391    0.00391    0.00391    0.00391    0.00391    0.00391
                         0.00391    0.00391    0.00391    0.00391    0.00391    0.00391
                         0.00391    0.00391
              wtk10      0.00391    0.00391    0.00391    0.00391    0.00391    0.00391
                         0.00391    0.00391    0.00391    0.00391    0.00391    0.00391
                         0.00391    0.00391    0.00391    0.00391    0.00391    0.00391
                         0.00391    0.00391    0.00391    0.00391    0.00391    0.00391
                         0.00391    0.00391    0.00391    0.00391    0.00391    0.00391
                         0.00391    0.00391    0.00391    0.00391    0.00391    0.00391
                         0.00391    0.00391    0.00391    0.00391    0.00391    0.00391
                         0.00391    0.00391    0.00391    0.00391    0.00391    0.00391
                         0.00391    0.00391
                       outvars : Printing only first  50 k-points.
           xangst      0.0000000000E+00  0.0000000000E+00  0.0000000000E+00
                       1.5865603144E+00  1.5865603144E+00  1.5865603144E+00
            xcart      0.0000000000E+00  0.0000000000E+00  0.0000000000E+00
                       2.9981644875E+00  2.9981644875E+00  2.9981644875E+00
             xred      0.0000000000E+00  0.0000000000E+00  0.0000000000E+00
                       2.5000000000E-01  2.5000000000E-01  2.5000000000E-01
            znucl       49.00000   51.00000

================================================================================

 chkinp: Checking input parameters for consistency, jdtset=   1.

 chkinp: Checking input parameters for consistency, jdtset=   2.

 chkinp: Checking input parameters for consistency, jdtset=   3.

 chkinp: Checking input parameters for consistency, jdtset=   4.

 chkinp: Checking input parameters for consistency, jdtset=   5.

 chkinp: Checking input parameters for consistency, jdtset=   6.

 chkinp: Checking input parameters for consistency, jdtset=   7.

 chkinp: Checking input parameters for consistency, jdtset=   8.

 chkinp: Checking input parameters for consistency, jdtset=   9.

 chkinp: Checking input parameters for consistency, jdtset=  10.

================================================================================
== DATASET  1 ==================================================================
-   mpi_nproc: 8, omp_nthreads: 8 (-1 if OMP is not activated)
-    --> not optimal distribution: autoparal keyword recommended in input file <--


--- !DatasetInfo
iteration_state: {dtset: 1, }
dimensions: {natom: 2, nkpt: 10, mband: 4, nsppol: 1, nspinor: 1, nspden: 1, mpw: 2613, }
cutoff_energies: {ecut:  25.0, pawecutdg:  -1.0, }
electrons: {nelect:   8.00000000E+00, charge:   0.00000000E+00, occopt:   1.00000000E+00, tsmear:   1.00000000E-02, }
meta: {optdriver: 0, ionmov: 0, optcell: 0, iscf: 7, paral_kgb: 0, }
...

 Exchange-correlation functional for the present dataset will be:
  LDA: new Teter (4/93) with spin-polarized option - ixc=1
 Citation for XC functional:
  S. Goedecker, M. Teter, J. Huetter, PRB 54, 1703 (1996)

 Real(R)+Recip(G) space primitive vectors, cartesian coordinates (Bohr,Bohr^-1):
 R(1)=  0.0000000  5.9963290  5.9963290  G(1)= -0.0833844  0.0833844  0.0833844
 R(2)=  5.9963290  0.0000000  5.9963290  G(2)=  0.0833844 -0.0833844  0.0833844
 R(3)=  5.9963290  5.9963290  0.0000000  G(3)=  0.0833844  0.0833844 -0.0833844
 Unit cell volume ucvol=  4.3120754E+02 bohr^3
 Angles (23,13,12)=  6.00000000E+01  6.00000000E+01  6.00000000E+01 degrees

 getcut: wavevector=  0.0000  0.0000  0.0000  ngfft=  40  40  40
         ecut(hartree)=     25.000   => boxcut(ratio)=   2.09568

--- Pseudopotential description ------------------------------------------------
- pspini: atom type   1  psp file is /Users/lassi/Desktop/abinit_InSb/simulations/pseudos/49in.3.hgh
- pspatm: opening atomic psp file    /Users/lassi/Desktop/abinit_InSb/simulations/pseudos/49in.3.hgh
- Hartwigsen-Goedecker-Hutter psp for In,  from PRB58, 3641 (1998)
- 49.00000   3.00000     10605                znucl, zion, pspdat
    3    1    2    0      2001   0.00000      pspcod,pspxc,lmax,lloc,mmax,r2well
 rloc=   0.6100000
 cc1 =   2.8657770; cc2 =   0.0000000; cc3 =   0.0000000; cc4 =   0.0000000
 rrs =   0.7706020; h11s=   1.2561940; h22s=  -0.3972550; h33s=  -0.2783290
 rrp =   0.8581320; h11p=   0.4944590; h22p=  -0.3807890; h33p=   0.0000000
                    k11p=   0.0663670; k22p=  -0.0055630; k33p=   0.0000000
 rrd =   1.0886910; h11d=   0.1292080; h22d=   0.0000000; h33d=   0.0000000
                    k11d=   0.0044480; k22d=   0.0000000; k33d=   0.0000000
-  Local part computed in reciprocal space.

 pspatm : COMMENT -
  the projectors are not normalized,
  so that the KB energies are not consistent with 
  definition in PRB44, 8503 (1991). 
  However, this does not influence the results obtained hereafter.
  pspatm : epsatm=   17.25867767
         --- l  ekb(1:nproj) -->
             0   -0.872822   -0.248925    2.063593
             1   -1.350798    1.725815
             2    3.321137
 pspatm: atomic psp has been read  and splines computed

- pspini: atom type   2  psp file is /Users/lassi/Desktop/abinit_InSb/simulations/pseudos/51sb.5.hgh
- pspatm: opening atomic psp file    /Users/lassi/Desktop/abinit_InSb/simulations/pseudos/51sb.5.hgh
- Hartwigsen-Goedecker-Hutter psp for Sb,  from PRB58, 3641 (1998)
- 51.00000   5.00000     10605                znucl, zion, pspdat
    3    1    2    0      2001   0.00000      pspcod,pspxc,lmax,lloc,mmax,r2well
 rloc=   0.5900000
 cc1 =   6.6802280; cc2 =   0.0000000; cc3 =   0.0000000; cc4 =   0.0000000
 rrs =   0.5976840; h11s=   1.9514770; h22s=   0.0375370; h33s=  -0.7866310
 rrp =   0.6721220; h11p=   0.9703130; h22p=  -0.4667310; h33p=   0.0000000
                    k11p=   0.1392220; k22p=   0.0235130; k33p=   0.0000000
 rrd =   0.8565570; h11d=   0.3001030; h22d=   0.0000000; h33d=   0.0000000
                    k11d=   0.0094320; k22d=   0.0000000; k33d=   0.0000000
-  Local part computed in reciprocal space.

 pspatm : COMMENT -
  the projectors are not normalized,
  so that the KB energies are not consistent with 
  definition in PRB44, 8503 (1991). 
  However, this does not influence the results obtained hereafter.
  pspatm : epsatm=   32.54401099
         --- l  ekb(1:nproj) -->
             0   -0.778424    0.200340    1.488128
             1   -0.479727    0.969445
             2    1.439558
 pspatm: atomic psp has been read  and splines computed

   3.98421509E+02                                ecore*ucvol(ha*bohr**3)
--------------------------------------------------------------------------------

_setup2: Arith. and geom. avg. npw (full set) are    2574.406    2574.387

================================================================================

--- !BeginCycle
iteration_state: {dtset: 1, }
solver: {iscf: 7, nstep: 100, nline: 4, wfoptalg: 0, }
tolerances: {tolvrs: 1.00E-12, }
...

     iter   Etot(hartree)      deltaE(h)  residm     vres2
 ETOT  1  -7.6635230019304    -7.664E+00 2.028E-02 1.219E+02
 ETOT  2  -7.6831203109510    -1.960E-02 5.893E-05 4.877E+00
 ETOT  3  -7.6834856427450    -3.653E-04 8.524E-06 4.519E-01
 ETOT  4  -7.6835183626178    -3.272E-05 6.094E-07 7.014E-03
 ETOT  5  -7.6835188149623    -4.523E-07 3.153E-08 5.335E-05
 ETOT  6  -7.6835188219310    -6.969E-09 4.330E-09 7.971E-07
 ETOT  7  -7.6835188222328    -3.018E-10 2.099E-10 3.197E-08
 ETOT  8  -7.6835188222537    -2.092E-11 3.072E-11 1.686E-09
 ETOT  9  -7.6835188222553    -1.585E-12 1.452E-12 2.443E-11
 ETOT 10  -7.6835188222556    -2.576E-13 1.955E-13 5.143E-12
 ETOT 11  -7.6835188222556    -2.487E-14 6.858E-15 1.119E-13

 At SCF step   11       vres2   =  1.12E-13 < tolvrs=  1.00E-12 =>converged.

 Cartesian components of stress tensor (hartree/bohr^3)
  sigma(1 1)=  1.40776734E-07  sigma(3 2)=  0.00000000E+00
  sigma(2 2)=  1.40776734E-07  sigma(3 1)=  0.00000000E+00
  sigma(3 3)=  1.40776734E-07  sigma(2 1)=  0.00000000E+00


--- !ResultsGS
iteration_state: {dtset: 1, }
comment   : Summary of ground state results
lattice_vectors:
- [  0.0000000,   5.9963290,   5.9963290, ]
- [  5.9963290,   0.0000000,   5.9963290, ]
- [  5.9963290,   5.9963290,   0.0000000, ]
lattice_lengths: [   8.48009,    8.48009,    8.48009, ]
lattice_angles: [ 60.000,  60.000,  60.000, ] # degrees, (23, 13, 12)
lattice_volume:   4.3120754E+02
convergence: {deltae: -2.487E-14, res2:  1.119E-13, residm:  6.858E-15, diffor: null, }
etotal    :  -7.68351882E+00
entropy   :   0.00000000E+00
fermie    :   2.29298812E-02
cartesian_stress_tensor: # hartree/bohr^3
- [  1.40776734E-07,   0.00000000E+00,   0.00000000E+00, ]
- [  0.00000000E+00,   1.40776734E-07,   0.00000000E+00, ]
- [  0.00000000E+00,   0.00000000E+00,   1.40776734E-07, ]
pressure_GPa:  -4.1418E-03
xred      :
- [  0.0000E+00,   0.0000E+00,   0.0000E+00, In]
- [  2.5000E-01,   2.5000E-01,   2.5000E-01, Sb]
cartesian_forces: # hartree/bohr
- [ -0.00000000E+00,  -0.00000000E+00,  -0.00000000E+00, ]
- [ -0.00000000E+00,  -0.00000000E+00,  -0.00000000E+00, ]
force_length_stats: {min:   0.00000000E+00, max:   0.00000000E+00, mean:   0.00000000E+00, }
...

 Integrated electronic density in atomic spheres:
 ------------------------------------------------
 Atom  Sphere_radius  Integrated_density
    1        2.00000          0.67731767
    2        2.00000          1.55098705
================================================================================

 ----iterations are completed or convergence reached----

 Mean square residual over all n,k,spin=   25.723E-17; max=  68.577E-16
 reduced coordinates (array xred) for    2 atoms
       0.000000000000      0.000000000000      0.000000000000
       0.250000000000      0.250000000000      0.250000000000
 rms dE/dt=  0.0000E+00; max dE/dt=  0.0000E+00; dE/dt below (all hartree)
    1       0.000000000000      0.000000000000      0.000000000000
    2       0.000000000000      0.000000000000      0.000000000000

 cartesian coordinates (angstrom) at end:
    1      0.00000000000000     0.00000000000000     0.00000000000000
    2      1.58656031438892     1.58656031438892     1.58656031438892

 cartesian forces (hartree/bohr) at end:
    1     -0.00000000000000    -0.00000000000000    -0.00000000000000
    2     -0.00000000000000    -0.00000000000000    -0.00000000000000
 frms,max,avg= 0.0000000E+00 0.0000000E+00   0.000E+00  0.000E+00  0.000E+00 h/b

 cartesian forces (eV/Angstrom) at end:
    1     -0.00000000000000    -0.00000000000000    -0.00000000000000
    2     -0.00000000000000    -0.00000000000000    -0.00000000000000
 frms,max,avg= 0.0000000E+00 0.0000000E+00   0.000E+00  0.000E+00  0.000E+00 e/A
 length scales= 11.992657950000 11.992657950000 11.992657950000 bohr
              =  6.346241257556  6.346241257556  6.346241257556 angstroms
 prteigrs : about to open file Ph_1o_DS1_EIG
 Fermi (or HOMO) energy (hartree) =   0.02293   Average Vxc (hartree)=  -0.28592
 Eigenvalues (hartree) for nkpt=  10  k points:
 kpt#   1, nband=  4, wtk=  0.09375, kpt= -0.1250 -0.2500  0.0000 (reduced coord)
  -0.35715   -0.09069   -0.00837   -0.00741
 prteigrs : prtvol=0 or 1, do not print more k-points.


--- !EnergyTerms
iteration_state     : {dtset: 1, }
comment             : Components of total free energy in Hartree
kinetic             :  2.54585028202157E+00
hartree             :  6.21050446713648E-01
xc                  : -2.13587413672588E+00
Ewald energy        : -7.50223138068864E+00
psp_core            :  9.23966927624370E-01
local_psp           : -2.33658896644786E+00
non_local_psp       :  2.00308005247181E-01
total_energy        : -7.68351882225561E+00
total_energy_eV     : -2.09079180067932E+02
band_energy         : -1.13168713997874E+00
...


 Cartesian components of stress tensor (hartree/bohr^3)
  sigma(1 1)=  1.40776734E-07  sigma(3 2)=  0.00000000E+00
  sigma(2 2)=  1.40776734E-07  sigma(3 1)=  0.00000000E+00
  sigma(3 3)=  1.40776734E-07  sigma(2 1)=  0.00000000E+00

-Cartesian components of stress tensor (GPa)         [Pressure= -4.1418E-03 GPa]
- sigma(1 1)=  4.14179382E-03  sigma(3 2)=  0.00000000E+00
- sigma(2 2)=  4.14179382E-03  sigma(3 1)=  0.00000000E+00
- sigma(3 3)=  4.14179382E-03  sigma(2 1)=  0.00000000E+00

================================================================================
== DATASET  2 ==================================================================
-   mpi_nproc: 8, omp_nthreads: 8 (-1 if OMP is not activated)


--- !DatasetInfo
iteration_state: {dtset: 2, }
dimensions: {natom: 2, nkpt: 128, mband: 4, nsppol: 1, nspinor: 1, nspden: 1, mpw: 2613, }
cutoff_energies: {ecut:  25.0, pawecutdg:  -1.0, }
electrons: {nelect:   8.00000000E+00, charge:   0.00000000E+00, occopt:   1.00000000E+00, tsmear:   1.00000000E-02, }
meta: {optdriver: 1, rfelfd: 2, }
...

 mkfilename : getwfk/=0, take file _WFK from output of DATASET   1.

 Exchange-correlation functional for the present dataset will be:
  LDA: new Teter (4/93) with spin-polarized option - ixc=1
 Citation for XC functional:
  S. Goedecker, M. Teter, J. Huetter, PRB 54, 1703 (1996)

 Real(R)+Recip(G) space primitive vectors, cartesian coordinates (Bohr,Bohr^-1):
 R(1)=  0.0000000  5.9963290  5.9963290  G(1)= -0.0833844  0.0833844  0.0833844
 R(2)=  5.9963290  0.0000000  5.9963290  G(2)=  0.0833844 -0.0833844  0.0833844
 R(3)=  5.9963290  5.9963290  0.0000000  G(3)=  0.0833844  0.0833844 -0.0833844
 Unit cell volume ucvol=  4.3120754E+02 bohr^3
 Angles (23,13,12)=  6.00000000E+01  6.00000000E+01  6.00000000E+01 degrees
 setup1 : take into account q-point for computing boxcut.

 getcut: wavevector=  0.0000  0.0000  0.0000  ngfft=  40  40  40
         ecut(hartree)=     25.000   => boxcut(ratio)=   2.09568
--------------------------------------------------------------------------------

-inwffil : will read wavefunctions from disk file Ph_1o_DS1_WFK

 ==>  initialize data related to q vector <== 

 The list of irreducible perturbations for this q vector is:
    1)    idir= 1    ipert=   3
    2)    idir= 2    ipert=   3
    3)    idir= 3    ipert=   3

================================================================================

--------------------------------------------------------------------------------
 Perturbation wavevector (in red.coord.)   0.000000  0.000000  0.000000
 Perturbation : derivative vs k along direction   1
 The set of symmetries contains only one element for this perturbation.
 symkpt : not enough symmetry to change the number of k points.

--------------------------------------------------------------------------------

-inwffil : will read wavefunctions from disk file Ph_1o_DS1_WFK
--------------------------------------------------------------------------------

 Initialisation of the first-order wave-functions :
  ireadwf=   0

--- !BeginCycle
iteration_state: {dtset: 2, }
solver: {iscf: -3, nstep: 100, nline: 4, wfoptalg: 0, }
tolerances: {tolwfr: 1.00E-22, }
...

     iter   2DEtotal(Ha)        deltaE(Ha) residm    vres2
-ETOT  1  -7.8814072517381     -7.881E+00 3.448E-01 0.000E+00
 ETOT  2  -7.9599691539483     -7.856E-02 5.459E-02 0.000E+00
 ETOT  3  -7.9634375228216     -3.468E-03 1.568E-03 0.000E+00
 ETOT  4  -7.9636754839926     -2.380E-04 2.529E-04 0.000E+00
 ETOT  5  -7.9636937359810     -1.825E-05 8.768E-06 0.000E+00
 ETOT  6  -7.9636951935343     -1.458E-06 1.690E-06 0.000E+00
 ETOT  7  -7.9636953120839     -1.185E-07 5.908E-08 0.000E+00
 ETOT  8  -7.9636953218113     -9.727E-09 1.152E-08 0.000E+00
 ETOT  9  -7.9636953226135     -8.022E-10 4.035E-10 0.000E+00
 ETOT 10  -7.9636953226799     -6.634E-11 7.877E-11 0.000E+00
 ETOT 11  -7.9636953226854     -5.533E-12 2.768E-12 0.000E+00
 ETOT 12  -7.9636953226859     -4.698E-13 5.403E-13 0.000E+00
 ETOT 13  -7.9636953226859     -3.553E-15 1.905E-14 0.000E+00
 ETOT 14  -7.9636953226858      3.375E-14 3.727E-15 0.000E+00
 ETOT 15  -7.9636953226858     -1.332E-14 1.315E-16 0.000E+00
 ETOT 16  -7.9636953226858      0.000E+00 2.590E-17 0.000E+00
 ETOT 17  -7.9636953226859     -3.553E-15 9.089E-19 0.000E+00
 ETOT 18  -7.9636953226859     -2.309E-14 1.803E-19 0.000E+00
 ETOT 19  -7.9636953226859      7.105E-15 6.295E-21 0.000E+00
 ETOT 20  -7.9636953226859      5.329E-15 1.256E-21 0.000E+00
 ETOT 21  -7.9636953226859     -1.688E-14 9.939E-23 0.000E+00

 At SCF step   21   max residual=  9.94E-23 < tolwfr=  1.00E-22 =>converged.
================================================================================

 ----iterations are completed or convergence reached----

 Mean square residual over all n,k,spin=   45.977E-24; max=  99.391E-24
 dfpt_looppert : ek2=    1.3175590243E+01
          f-sum rule ratio=    1.0266581012E+00
 prteigrs : about to open file Ph_1t_1WF1_EIG
 Expectation of eigenvalue derivatives (hartree) for nkpt= 128  k points:
  (in case of degenerate eigenvalues, averaged derivative)
 kpt#   1, nband=  4, wtk=  0.00781, kpt= -0.1250 -0.2500  0.0000 (reduced coord)
  -0.02922   -0.03112    0.19902    0.15013
 prteigrs : prtvol=0 or 1, do not print more k-points.


 Eight components of 2nd-order total energy (hartree) are
 1,2,3: 0th-order hamiltonian combined with 1st-order wavefunctions
     kin0=   2.41366193E+01 eigvalue=   1.11112106E+00  local=  -2.01596768E+01
 4,5,6: 1st-order hamiltonian combined with 1st and 0th-order wfs
     kin1=  -1.35268265E+01  Hartree=   0.00000000E+00     xc=   0.00000000E+00
 7,8,9: eventually, occupation + non-local contributions
    edocc=   0.00000000E+00     enl0=   2.87563177E+00   enl1=  -2.40056418E+00
 1-9 gives the relaxation energy (to be shifted if some occ is /=2.0)
   erelax=  -7.96369532E+00
  No Ewald or frozen-wf contrib.: the relaxation energy is the total one
 2DEtotal=   -0.7963695323E+01 Ha. Also 2DEtotal=   -0.216703170370E+03 eV
    (  non-var. 2DEtotal :   -7.9636953227E+00 Ha)

--------------------------------------------------------------------------------
 Perturbation wavevector (in red.coord.)   0.000000  0.000000  0.000000
 Perturbation : derivative vs k along direction   2
 The set of symmetries contains only one element for this perturbation.
 symkpt : not enough symmetry to change the number of k points.

--------------------------------------------------------------------------------

-inwffil : will read wavefunctions from disk file Ph_1o_DS1_WFK
--------------------------------------------------------------------------------

 Initialisation of the first-order wave-functions :
  ireadwf=   0

--- !BeginCycle
iteration_state: {dtset: 2, }
solver: {iscf: -3, nstep: 100, nline: 4, wfoptalg: 0, }
tolerances: {tolwfr: 1.00E-22, }
...

     iter   2DEtotal(Ha)        deltaE(Ha) residm    vres2
-ETOT  1  -7.8814072516750     -7.881E+00 3.448E-01 0.000E+00
 ETOT  2  -7.9599691538851     -7.856E-02 5.459E-02 0.000E+00
 ETOT  3  -7.9634375227584     -3.468E-03 1.568E-03 0.000E+00
 ETOT  4  -7.9636754839294     -2.380E-04 2.529E-04 0.000E+00
 ETOT  5  -7.9636937359178     -1.825E-05 8.768E-06 0.000E+00
 ETOT  6  -7.9636951934711     -1.458E-06 1.690E-06 0.000E+00
 ETOT  7  -7.9636953120207     -1.185E-07 5.908E-08 0.000E+00
 ETOT  8  -7.9636953217481     -9.727E-09 1.152E-08 0.000E+00
 ETOT  9  -7.9636953225503     -8.022E-10 4.035E-10 0.000E+00
 ETOT 10  -7.9636953226167     -6.634E-11 7.877E-11 0.000E+00
 ETOT 11  -7.9636953226222     -5.536E-12 2.768E-12 0.000E+00
 ETOT 12  -7.9636953226226     -4.183E-13 5.403E-13 0.000E+00
 ETOT 13  -7.9636953226227     -2.398E-14 1.905E-14 0.000E+00
 ETOT 14  -7.9636953226227     -1.510E-14 3.727E-15 0.000E+00
 ETOT 15  -7.9636953226227      3.553E-15 1.315E-16 0.000E+00
 ETOT 16  -7.9636953226227     -3.730E-14 2.590E-17 0.000E+00
 ETOT 17  -7.9636953226227      1.510E-14 9.089E-19 0.000E+00
 ETOT 18  -7.9636953226227     -2.665E-14 1.803E-19 0.000E+00
 ETOT 19  -7.9636953226227      2.043E-14 6.295E-21 0.000E+00
 ETOT 20  -7.9636953226227      5.329E-15 1.256E-21 0.000E+00
 ETOT 21  -7.9636953226227      1.865E-14 9.939E-23 0.000E+00

 At SCF step   21   max residual=  9.94E-23 < tolwfr=  1.00E-22 =>converged.
================================================================================

 ----iterations are completed or convergence reached----

 Mean square residual over all n,k,spin=   46.069E-24; max=  99.391E-24
 dfpt_looppert : ek2=    1.3175590243E+01
          f-sum rule ratio=    1.0266581011E+00
 prteigrs : about to open file Ph_1t_1WF1_EIG
 Expectation of eigenvalue derivatives (hartree) for nkpt= 128  k points:
  (in case of degenerate eigenvalues, averaged derivative)
[...]
P          mk1mem2         16
P          mk1mem3         16
P          mk1mem4         32
P          mk1mem5         32
P          mk1mem6         32
P          mk1mem7         32
P          mk1mem8         32
P          mk1mem9         32
P          mk1mem10        32
            natom           2
            nband1          4
            nband2          4
            nband3          4
            nband4          4
            nband5          4
            nband6          4
            nband7          4
            nband8          4
            nband9          4
            nband10         4
           ndtset          10
            ngfft          40      40      40
             nkpt1         10
             nkpt2        128
             nkpt3        128
             nkpt4        256
             nkpt5        256
             nkpt6        256
             nkpt7        256
             nkpt8        256
             nkpt9        256
             nkpt10       256
             nqpt1          0
             nqpt2          1
             nqpt3          1
             nqpt4          1
             nqpt5          1
             nqpt6          1
             nqpt7          1
             nqpt8          1
             nqpt9          1
             nqpt10         1
            nstep         100
             nsym          24
           ntypat           2
              occ1     2.000000  2.000000  2.000000  2.000000
              occ2     2.000000  2.000000  2.000000  2.000000
              occ3     2.000000  2.000000  2.000000  2.000000
              occ4     2.000000  2.000000  2.000000  2.000000
              occ5     2.000000  2.000000  2.000000  2.000000
              occ6     2.000000  2.000000  2.000000  2.000000
              occ7     2.000000  2.000000  2.000000  2.000000
              occ8     2.000000  2.000000  2.000000  2.000000
              occ9     2.000000  2.000000  2.000000  2.000000
              occ10    2.000000  2.000000  2.000000  2.000000
        optdriver1          0
        optdriver2          1
        optdriver3          1
        optdriver4          1
        optdriver5          1
        optdriver6          1
        optdriver7          1
        optdriver8          1
        optdriver9          1
        optdriver10         1
              qpt1     0.00000000E+00  0.00000000E+00  0.00000000E+00
              qpt2     0.00000000E+00  0.00000000E+00  0.00000000E+00
              qpt3     0.00000000E+00  0.00000000E+00  0.00000000E+00
              qpt4     2.50000000E-01  0.00000000E+00  0.00000000E+00
              qpt5     5.00000000E-01  0.00000000E+00  0.00000000E+00
              qpt6     2.50000000E-01  2.50000000E-01  0.00000000E+00
              qpt7     5.00000000E-01  2.50000000E-01  0.00000000E+00
              qpt8    -2.50000000E-01  2.50000000E-01  0.00000000E+00
              qpt9     5.00000000E-01  5.00000000E-01  0.00000000E+00
              qpt10   -2.50000000E-01  5.00000000E-01  2.50000000E-01
          rfatpol           1       2
            rfdir           1       1       1
           rfelfd1          0
           rfelfd2          2
           rfelfd3          3
           rfelfd4          0
           rfelfd5          0
           rfelfd6          0
           rfelfd7          0
           rfelfd8          0
           rfelfd9          0
           rfelfd10         0
           rfphon1          0
           rfphon2          0
           rfphon3          1
           rfphon4          1
           rfphon5          1
           rfphon6          1
           rfphon7          1
           rfphon8          1
           rfphon9          1
           rfphon10         1
            rprim      0.0000000000E+00  5.0000000000E-01  5.0000000000E-01
                       5.0000000000E-01  0.0000000000E+00  5.0000000000E-01
                       5.0000000000E-01  5.0000000000E-01  0.0000000000E+00
           shiftk      5.00000000E-01  5.00000000E-01  5.00000000E-01
          spgroup         216
           strten1     1.4077673416E-07  1.4077673416E-07  1.4077673416E-07
                       0.0000000000E+00  0.0000000000E+00  0.0000000000E+00
           strten3     0.0000000000E+00  0.0000000000E+00  0.0000000000E+00
                       0.0000000000E+00  0.0000000000E+00  0.0000000000E+00
           strten4     0.0000000000E+00  0.0000000000E+00  0.0000000000E+00
                       0.0000000000E+00  0.0000000000E+00  0.0000000000E+00
           strten5     0.0000000000E+00  0.0000000000E+00  0.0000000000E+00
                       0.0000000000E+00  0.0000000000E+00  0.0000000000E+00
           strten6     0.0000000000E+00  0.0000000000E+00  0.0000000000E+00
                       0.0000000000E+00  0.0000000000E+00  0.0000000000E+00
           strten7     0.0000000000E+00  0.0000000000E+00  0.0000000000E+00
                       0.0000000000E+00  0.0000000000E+00  0.0000000000E+00
           strten8     0.0000000000E+00  0.0000000000E+00  0.0000000000E+00
                       0.0000000000E+00  0.0000000000E+00  0.0000000000E+00
           strten9     0.0000000000E+00  0.0000000000E+00  0.0000000000E+00
                       0.0000000000E+00  0.0000000000E+00  0.0000000000E+00
           strten10    0.0000000000E+00  0.0000000000E+00  0.0000000000E+00
                       0.0000000000E+00  0.0000000000E+00  0.0000000000E+00
           symrel      1  0  0   0  1  0   0  0  1       0 -1  1   0 -1  0   1 -1  0
                      -1  0  0  -1  0  1  -1  1  0       0  1 -1   1  0 -1   0  0 -1
                      -1  0  0  -1  1  0  -1  0  1       0 -1  1   1 -1  0   0 -1  0
                       1  0  0   0  0  1   0  1  0       0  1 -1   0  0 -1   1  0 -1
                      -1  0  1  -1  1  0  -1  0  0       0 -1  0   1 -1  0   0 -1  1
                       1  0 -1   0  0 -1   0  1 -1       0  1  0   0  0  1   1  0  0
                       1  0 -1   0  1 -1   0  0 -1       0 -1  0   0 -1  1   1 -1  0
                      -1  0  1  -1  0  0  -1  1  0       0  1  0   1  0  0   0  0  1
                       0  0 -1   0  1 -1   1  0 -1       1 -1  0   0 -1  1   0 -1  0
                       0  0  1   1  0  0   0  1  0      -1  1  0  -1  0  0  -1  0  1
                       0  0  1   0  1  0   1  0  0       1 -1  0   0 -1  0   0 -1  1
                       0  0 -1   1  0 -1   0  1 -1      -1  1  0  -1  0  1  -1  0  0
           tolvrs1     1.00000000E-12
           tolvrs2     0.00000000E+00
           tolvrs3     1.00000000E-12
           tolvrs4     1.00000000E-12
           tolvrs5     1.00000000E-12
           tolvrs6     1.00000000E-12
           tolvrs7     1.00000000E-12
           tolvrs8     1.00000000E-12
           tolvrs9     1.00000000E-12
           tolvrs10    1.00000000E-12
           tolwfr1     0.00000000E+00
           tolwfr2     1.00000000E-22
           tolwfr3     0.00000000E+00
           tolwfr4     0.00000000E+00
           tolwfr5     0.00000000E+00
           tolwfr6     0.00000000E+00
           tolwfr7     0.00000000E+00
           tolwfr8     0.00000000E+00
           tolwfr9     0.00000000E+00
           tolwfr10    0.00000000E+00
            typat      1  2
              wtk1       0.09375    0.09375    0.09375    0.18750    0.09375    0.09375
                         0.09375    0.18750    0.03125    0.03125
              wtk2       0.00781    0.00781    0.00781    0.00781    0.00781    0.00781
                         0.00781    0.00781    0.00781    0.00781    0.00781    0.00781
                         0.00781    0.00781    0.00781    0.00781    0.00781    0.00781
                         0.00781    0.00781    0.00781    0.00781    0.00781    0.00781
                         0.00781    0.00781    0.00781    0.00781    0.00781    0.00781
                         0.00781    0.00781    0.00781    0.00781    0.00781    0.00781
                         0.00781    0.00781    0.00781    0.00781    0.00781    0.00781
                         0.00781    0.00781    0.00781    0.00781    0.00781    0.00781
                         0.00781    0.00781
              wtk3       0.00781    0.00781    0.00781    0.00781    0.00781    0.00781
                         0.00781    0.00781    0.00781    0.00781    0.00781    0.00781
                         0.00781    0.00781    0.00781    0.00781    0.00781    0.00781
                         0.00781    0.00781    0.00781    0.00781    0.00781    0.00781
                         0.00781    0.00781    0.00781    0.00781    0.00781    0.00781
                         0.00781    0.00781    0.00781    0.00781    0.00781    0.00781
                         0.00781    0.00781    0.00781    0.00781    0.00781    0.00781
                         0.00781    0.00781    0.00781    0.00781    0.00781    0.00781
                         0.00781    0.00781
              wtk4       0.00391    0.00391    0.00391    0.00391    0.00391    0.00391
                         0.00391    0.00391    0.00391    0.00391    0.00391    0.00391
                         0.00391    0.00391    0.00391    0.00391    0.00391    0.00391
                         0.00391    0.00391    0.00391    0.00391    0.00391    0.00391
                         0.00391    0.00391    0.00391    0.00391    0.00391    0.00391
                         0.00391    0.00391    0.00391    0.00391    0.00391    0.00391
                         0.00391    0.00391    0.00391    0.00391    0.00391    0.00391
                         0.00391    0.00391    0.00391    0.00391    0.00391    0.00391
                         0.00391    0.00391
              wtk5       0.00391    0.00391    0.00391    0.00391    0.00391    0.00391
                         0.00391    0.00391    0.00391    0.00391    0.00391    0.00391
                         0.00391    0.00391    0.00391    0.00391    0.00391    0.00391
                         0.00391    0.00391    0.00391    0.00391    0.00391    0.00391
                         0.00391    0.00391    0.00391    0.00391    0.00391    0.00391
                         0.00391    0.00391    0.00391    0.00391    0.00391    0.00391
                         0.00391    0.00391    0.00391    0.00391    0.00391    0.00391
                         0.00391    0.00391    0.00391    0.00391    0.00391    0.00391
                         0.00391    0.00391
              wtk6       0.00391    0.00391    0.00391    0.00391    0.00391    0.00391
                         0.00391    0.00391    0.00391    0.00391    0.00391    0.00391
                         0.00391    0.00391    0.00391    0.00391    0.00391    0.00391
                         0.00391    0.00391    0.00391    0.00391    0.00391    0.00391
                         0.00391    0.00391    0.00391    0.00391    0.00391    0.00391
                         0.00391    0.00391    0.00391    0.00391    0.00391    0.00391
                         0.00391    0.00391    0.00391    0.00391    0.00391    0.00391
                         0.00391    0.00391    0.00391    0.00391    0.00391    0.00391
                         0.00391    0.00391
              wtk7       0.00391    0.00391    0.00391    0.00391    0.00391    0.00391
                         0.00391    0.00391    0.00391    0.00391    0.00391    0.00391
                         0.00391    0.00391    0.00391    0.00391    0.00391    0.00391
                         0.00391    0.00391    0.00391    0.00391    0.00391    0.00391
                         0.00391    0.00391    0.00391    0.00391    0.00391    0.00391
                         0.00391    0.00391    0.00391    0.00391    0.00391    0.00391
                         0.00391    0.00391    0.00391    0.00391    0.00391    0.00391
                         0.00391    0.00391    0.00391    0.00391    0.00391    0.00391
                         0.00391    0.00391
              wtk8       0.00391    0.00391    0.00391    0.00391    0.00391    0.00391
                         0.00391    0.00391    0.00391    0.00391    0.00391    0.00391
                         0.00391    0.00391    0.00391    0.00391    0.00391    0.00391
                         0.00391    0.00391    0.00391    0.00391    0.00391    0.00391
                         0.00391    0.00391    0.00391    0.00391    0.00391    0.00391
                         0.00391    0.00391    0.00391    0.00391    0.00391    0.00391
                         0.00391    0.00391    0.00391    0.00391    0.00391    0.00391
                         0.00391    0.00391    0.00391    0.00391    0.00391    0.00391
                         0.00391    0.00391
              wtk9       0.00391    0.00391    0.00391    0.00391    0.00391    0.00391
                         0.00391    0.00391    0.00391    0.00391    0.00391    0.00391
                         0.00391    0.00391    0.00391    0.00391    0.00391    0.00391
                         0.00391    0.00391    0.00391    0.00391    0.00391    0.00391
                         0.00391    0.00391    0.00391    0.00391    0.00391    0.00391
                         0.00391    0.00391    0.00391    0.00391    0.00391    0.00391
                         0.00391    0.00391    0.00391    0.00391    0.00391    0.00391
                         0.00391    0.00391    0.00391    0.00391    0.00391    0.00391
                         0.00391    0.00391
              wtk10      0.00391    0.00391    0.00391    0.00391    0.00391    0.00391
                         0.00391    0.00391    0.00391    0.00391    0.00391    0.00391
                         0.00391    0.00391    0.00391    0.00391    0.00391    0.00391
                         0.00391    0.00391    0.00391    0.00391    0.00391    0.00391
                         0.00391    0.00391    0.00391    0.00391    0.00391    0.00391
                         0.00391    0.00391    0.00391    0.00391    0.00391    0.00391
                         0.00391    0.00391    0.00391    0.00391    0.00391    0.00391
                         0.00391    0.00391    0.00391    0.00391    0.00391    0.00391
                         0.00391    0.00391
                       outvars : Printing only first  50 k-points.
           xangst      0.0000000000E+00  0.0000000000E+00  0.0000000000E+00
                       1.5865603144E+00  1.5865603144E+00  1.5865603144E+00
            xcart      0.0000000000E+00  0.0000000000E+00  0.0000000000E+00
                       2.9981644875E+00  2.9981644875E+00  2.9981644875E+00
             xred      0.0000000000E+00  0.0000000000E+00  0.0000000000E+00
                       2.5000000000E-01  2.5000000000E-01  2.5000000000E-01
            znucl       49.00000   51.00000

================================================================================


- Timing analysis has been suppressed with timopt=0



================================================================================

 Suggested references for the acknowledgment of ABINIT usage.

 The users of ABINIT have little formal obligations with respect to the ABINIT group
 (those specified in the GNU General Public License, http://www.gnu.org/copyleft/gpl.txt).
 However, it is common practice in the scientific literature,
 to acknowledge the efforts of people that have made the research possible.
 In this spirit, please find below suggested citations of work written by ABINIT developers,
 corresponding to implementations inside of ABINIT that you have used in the present run.
 Note also that it will be of great value to readers of publications presenting these results,
 to read papers enabling them to understand the theoretical formalism and details
 of the ABINIT implementation.
 For information on why they are suggested, see also https://docs.abinit.org/theory/acknowledgments.
-
- [1] The Abinit project: Impact, environment and recent developments.
- Computer Phys. Comm. 248, 107042 (2020).
- X.Gonze, B. Amadon, G. Antonius, F.Arnardi, L.Baguet, J.-M.Beuken,
- J.Bieder, F.Bottin, J.Bouchet, E.Bousquet, N.Brouwer, F.Bruneval,
- G.Brunin, T.Cavignac, J.-B. Charraud, Wei Chen, M.Cote, S.Cottenier,
- J.Denier, G.Geneste, Ph.Ghosez, M.Giantomassi, Y.Gillet, O.Gingras,
- D.R.Hamann, G.Hautier, Xu He, N.Helbig, N.Holzwarth, Y.Jia, F.Jollet,
- W.Lafargue-Dit-Hauret, K.Lejaeghere, M.A.L.Marques, A.Martin, C.Martins,
- H.P.C. Miranda, F.Naccarato, K. Persson, G.Petretto, V.Planes, Y.Pouillon,
- S.Prokhorenko, F.Ricci, G.-M.Rignanese, A.H.Romero, M.M.Schmitt, M.Torrent,
- M.J.van Setten, B.Van Troeye, M.J.Verstraete, G.Zerah and J.W.Zwanzig
- Comment: the fifth generic paper describing the ABINIT project.
- Note that a version of this paper, that is not formatted for Computer Phys. Comm. 
- is available at https://www.abinit.org/sites/default/files/ABINIT20.pdf .
- The licence allows the authors to put it on the Web.
- DOI and bibtex: see https://docs.abinit.org/theory/bibliography/#gonze2020
-
- [2] First-principles responses of solids to atomic displacements and homogeneous electric fields:,
- implementation of a conjugate-gradient algorithm. X. Gonze, Phys. Rev. B55, 10337 (1997).
- Comment: Non-vanishing rfphon and/or rfelfd, in the norm-conserving case.
- DOI and bibtex: see https://docs.abinit.org/theory/bibliography/#gonze1997
-
- [3] Dynamical matrices, Born effective charges, dielectric permittivity tensors, and ,
- interatomic force constants from density-functional perturbation theory,
- X. Gonze and C. Lee, Phys. Rev. B55, 10355 (1997).
- Comment: Non-vanishing rfphon and/or rfelfd, in the norm-conserving case.
- DOI and bibtex: see https://docs.abinit.org/theory/bibliography/#gonze1997a
-
- [4] ABINIT: Overview, and focus on selected capabilities
- J. Chem. Phys. 152, 124102 (2020).
- A. Romero, D.C. Allan, B. Amadon, G. Antonius, T. Applencourt, L.Baguet,
- J.Bieder, F.Bottin, J.Bouchet, E.Bousquet, F.Bruneval,
- G.Brunin, D.Caliste, M.Cote,
- J.Denier, C. Dreyer, Ph.Ghosez, M.Giantomassi, Y.Gillet, O.Gingras,
- D.R.Hamann, G.Hautier, F.Jollet, G. Jomard,
- A.Martin, 
- H.P.C. Miranda, F.Naccarato, G.Petretto, N.A. Pike, V.Planes,
- S.Prokhorenko, T. Rangel, F.Ricci, G.-M.Rignanese, M.Royo, M.Stengel, M.Torrent,
- M.J.van Setten, B.Van Troeye, M.J.Verstraete, J.Wiktor, J.W.Zwanziger, and X.Gonze.
- Comment: a global overview of ABINIT, with focus on selected capabilities .
- Note that a version of this paper, that is not formatted for J. Chem. Phys 
- is available at https://www.abinit.org/sites/default/files/ABINIT20_JPC.pdf .
- The licence allows the authors to put it on the Web.
- DOI and bibtex: see https://docs.abinit.org/theory/bibliography/#romero2020
-
- [5] Recent developments in the ABINIT software package.
- Computer Phys. Comm. 205, 106 (2016).
- X.Gonze, F.Jollet, F.Abreu Araujo, D.Adams, B.Amadon, T.Applencourt,
- C.Audouze, J.-M.Beuken, J.Bieder, A.Bokhanchuk, E.Bousquet, F.Bruneval
- D.Caliste, M.Cote, F.Dahm, F.Da Pieve, M.Delaveau, M.Di Gennaro,
- B.Dorado, C.Espejo, G.Geneste, L.Genovese, A.Gerossier, M.Giantomassi,
- Y.Gillet, D.R.Hamann, L.He, G.Jomard, J.Laflamme Janssen, S.Le Roux,
- A.Levitt, A.Lherbier, F.Liu, I.Lukacevic, A.Martin, C.Martins,
- M.J.T.Oliveira, S.Ponce, Y.Pouillon, T.Rangel, G.-M.Rignanese,
- A.H.Romero, B.Rousseau, O.Rubel, A.A.Shukri, M.Stankovski, M.Torrent,
- M.J.Van Setten, B.Van Troeye, M.J.Verstraete, D.Waroquier, J.Wiktor,
- B.Xu, A.Zhou, J.W.Zwanziger.
- Comment: the fourth generic paper describing the ABINIT project.
- Note that a version of this paper, that is not formatted for Computer Phys. Comm. 
- is available at https://www.abinit.org/sites/default/files/ABINIT16.pdf .
- The licence allows the authors to put it on the Web.
- DOI and bibtex: see https://docs.abinit.org/theory/bibliography/#gonze2016
-
- Proc.   0 individual time (sec): cpu=       1221.1  wall=       2197.4

================================================================================

 Calculation completed.
.Delivered   1 WARNINGs and   2 COMMENTs to log file.
+Overall time at end (sec) : cpu=       9753.4  wall=      17578.9
