
.Version 9.2.2 of ABINIT 
.(MPI version, prepared for a arm_darwin20.2.0_gnu10.2 computer) 

.Copyright (C) 1998-2020 ABINIT group . 
 ABINIT comes with ABSOLUTELY NO WARRANTY.
 It is free software, and you are welcome to redistribute it
 under certain conditions (GNU General Public License,
 see ~abinit/COPYING or http://www.gnu.org/copyleft/gpl.txt).

 ABINIT is a project of the Universite Catholique de Louvain,
 Corning Inc. and other collaborators, see ~abinit/doc/developers/contributors.txt .
 Please read https://docs.abinit.org/theory/acknowledgments for suggested
 acknowledgments of the ABINIT effort.
 For more information, see https://www.abinit.org .

.Starting date : Mon  8 Mar 2021.
- ( at 21h57 )
  
- input  file    -> Ph_3.abi
- output file    -> Ph_3.abo
- root for input  files -> Ph_3i
- root for output files -> Ph_3o


 DATASET    1 : space group F-4 3 m (#216); Bravais cF (face-center cubic)
================================================================================
 Values of the parameters that define the memory need for DATASET  1.
     intxc =       0    ionmov =       0      iscf =       7    lmnmax =       6
     lnmax =       6     mgfft =      40  mpssoang =       3    mqgrid =    3001
     natom =       2  nloc_mem =       1    nspden =       1   nspinor =       1
    nsppol =       1      nsym =      24    n1xccc =       0    ntypat =       2
    occopt =       1   xclevel =       1
-    mband =           4        mffmem =           1         mkmem =          15
       mpw =        2637          nfft =       64000          nkpt =          60
================================================================================
P This job should need less than                      21.881 Mbytes of memory.
  Rough estimation (10% accuracy) of disk space for files :
_ WF disk file :      9.659 Mbytes ; DEN or POT disk file :      0.490 Mbytes.
================================================================================


 DATASET    2 : space group F-4 3 m (#216); Bravais cF (face-center cubic)
================================================================================
 Values of the parameters that define the memory need for DATASET  2 (RF).
     intxc =       0      iscf =      -3    lmnmax =       6     lnmax =       6
     mgfft =      40  mpssoang =       3    mqgrid =    3001     natom =       2
  nloc_mem =       1    nspden =       1   nspinor =       1    nsppol =       1
      nsym =      24    n1xccc =       0    ntypat =       2    occopt =       1
   xclevel =       1
-    mband =           4        mffmem =           1         mkmem =         512
-   mkqmem =         512        mk1mem =         512           mpw =        2637
      nfft =       64000          nkpt =        1024
================================================================================
P This job should need less than                     293.537 Mbytes of memory.
  Rough estimation (10% accuracy) of disk space for files :
_ WF disk file :    164.815 Mbytes ; DEN or POT disk file :      0.490 Mbytes.
================================================================================


 DATASET    3 : space group F-4 3 m (#216); Bravais cF (face-center cubic)
================================================================================
 Values of the parameters that define the memory need for DATASET  3 (RF).
     intxc =       0      iscf =       7    lmnmax =       6     lnmax =       6
     mgfft =      40  mpssoang =       3    mqgrid =    3001     natom =       2
  nloc_mem =       1    nspden =       1   nspinor =       1    nsppol =       1
      nsym =      24    n1xccc =       0    ntypat =       2    occopt =       1
   xclevel =       1
-    mband =           4        mffmem =           1         mkmem =         512
-   mkqmem =         512        mk1mem =         512           mpw =        2637
      nfft =       64000          nkpt =        1024
================================================================================
P This job should need less than                     294.025 Mbytes of memory.
  Rough estimation (10% accuracy) of disk space for files :
_ WF disk file :    164.815 Mbytes ; DEN or POT disk file :      0.490 Mbytes.
================================================================================


 DATASET    4 : space group F-4 3 m (#216); Bravais cF (face-center cubic)
================================================================================
 Values of the parameters that define the memory need for DATASET  4 (RF).
     intxc =       0      iscf =       7    lmnmax =       6     lnmax =       6
     mgfft =      40  mpssoang =       3    mqgrid =    3001     natom =       2
  nloc_mem =       1    nspden =       1   nspinor =       1    nsppol =       1
      nsym =      24    n1xccc =       0    ntypat =       2    occopt =       1
   xclevel =       1
-    mband =           4        mffmem =           1         mkmem =        1024
-   mkqmem =        1024        mk1mem =        1024           mpw =        2637
      nfft =       64000          nkpt =        2048
================================================================================
P This job should need less than                     576.160 Mbytes of memory.
  Rough estimation (10% accuracy) of disk space for files :
_ WF disk file :    329.627 Mbytes ; DEN or POT disk file :      0.490 Mbytes.
================================================================================


 DATASET    5 : space group F-4 3 m (#216); Bravais cF (face-center cubic)
================================================================================
 Values of the parameters that define the memory need for DATASET  5 (RF).
     intxc =       0      iscf =       7    lmnmax =       6     lnmax =       6
     mgfft =      40  mpssoang =       3    mqgrid =    3001     natom =       2
  nloc_mem =       1    nspden =       1   nspinor =       1    nsppol =       1
      nsym =      24    n1xccc =       0    ntypat =       2    occopt =       1
   xclevel =       1
-    mband =           4        mffmem =           1         mkmem =        1024
-   mkqmem =        1024        mk1mem =        1024           mpw =        2637
      nfft =       64000          nkpt =        2048
================================================================================
P This job should need less than                     576.160 Mbytes of memory.
  Rough estimation (10% accuracy) of disk space for files :
_ WF disk file :    329.627 Mbytes ; DEN or POT disk file :      0.490 Mbytes.
================================================================================


 DATASET    6 : space group F-4 3 m (#216); Bravais cF (face-center cubic)
================================================================================
 Values of the parameters that define the memory need for DATASET  6 (RF).
     intxc =       0      iscf =       7    lmnmax =       6     lnmax =       6
     mgfft =      40  mpssoang =       3    mqgrid =    3001     natom =       2
  nloc_mem =       1    nspden =       1   nspinor =       1    nsppol =       1
      nsym =      24    n1xccc =       0    ntypat =       2    occopt =       1
   xclevel =       1
-    mband =           4        mffmem =           1         mkmem =        1024
-   mkqmem =        1024        mk1mem =        1024           mpw =        2637
      nfft =       64000          nkpt =        2048
================================================================================
P This job should need less than                     576.160 Mbytes of memory.
  Rough estimation (10% accuracy) of disk space for files :
_ WF disk file :    329.627 Mbytes ; DEN or POT disk file :      0.490 Mbytes.
================================================================================


 DATASET    7 : space group F-4 3 m (#216); Bravais cF (face-center cubic)
================================================================================
 Values of the parameters that define the memory need for DATASET  7 (RF).
     intxc =       0      iscf =       7    lmnmax =       6     lnmax =       6
     mgfft =      40  mpssoang =       3    mqgrid =    3001     natom =       2
  nloc_mem =       1    nspden =       1   nspinor =       1    nsppol =       1
      nsym =      24    n1xccc =       0    ntypat =       2    occopt =       1
   xclevel =       1
-    mband =           4        mffmem =           1         mkmem =        1024
-   mkqmem =        1024        mk1mem =        1024           mpw =        2637
      nfft =       64000          nkpt =        2048
================================================================================
P This job should need less than                     576.160 Mbytes of memory.
  Rough estimation (10% accuracy) of disk space for files :
_ WF disk file :    329.627 Mbytes ; DEN or POT disk file :      0.490 Mbytes.
================================================================================


 DATASET    8 : space group F-4 3 m (#216); Bravais cF (face-center cubic)
================================================================================
 Values of the parameters that define the memory need for DATASET  8 (RF).
     intxc =       0      iscf =       7    lmnmax =       6     lnmax =       6
     mgfft =      40  mpssoang =       3    mqgrid =    3001     natom =       2
  nloc_mem =       1    nspden =       1   nspinor =       1    nsppol =       1
      nsym =      24    n1xccc =       0    ntypat =       2    occopt =       1
   xclevel =       1
-    mband =           4        mffmem =           1         mkmem =        1024
-   mkqmem =        1024        mk1mem =        1024           mpw =        2637
      nfft =       64000          nkpt =        2048
================================================================================
P This job should need less than                     576.160 Mbytes of memory.
  Rough estimation (10% accuracy) of disk space for files :
_ WF disk file :    329.627 Mbytes ; DEN or POT disk file :      0.490 Mbytes.
================================================================================


 DATASET    9 : space group F-4 3 m (#216); Bravais cF (face-center cubic)
================================================================================
 Values of the parameters that define the memory need for DATASET  9 (RF).
     intxc =       0      iscf =       7    lmnmax =       6     lnmax =       6
     mgfft =      40  mpssoang =       3    mqgrid =    3001     natom =       2
  nloc_mem =       1    nspden =       1   nspinor =       1    nsppol =       1
      nsym =      24    n1xccc =       0    ntypat =       2    occopt =       1
   xclevel =       1
-    mband =           4        mffmem =           1         mkmem =        1024
-   mkqmem =        1024        mk1mem =        1024           mpw =        2637
      nfft =       64000          nkpt =        2048
================================================================================
P This job should need less than                     576.160 Mbytes of memory.
  Rough estimation (10% accuracy) of disk space for files :
_ WF disk file :    329.627 Mbytes ; DEN or POT disk file :      0.490 Mbytes.
================================================================================


 DATASET   10 : space group F-4 3 m (#216); Bravais cF (face-center cubic)
================================================================================
 Values of the parameters that define the memory need for DATASET 10 (RF).
     intxc =       0      iscf =       7    lmnmax =       6     lnmax =       6
     mgfft =      40  mpssoang =       3    mqgrid =    3001     natom =       2
  nloc_mem =       1    nspden =       1   nspinor =       1    nsppol =       1
      nsym =      24    n1xccc =       0    ntypat =       2    occopt =       1
   xclevel =       1
-    mband =           4        mffmem =           1         mkmem =        1024
-   mkqmem =        1024        mk1mem =        1024           mpw =        2637
      nfft =       64000          nkpt =        2048
================================================================================
P This job should need less than                     576.160 Mbytes of memory.
  Rough estimation (10% accuracy) of disk space for files :
_ WF disk file :    329.627 Mbytes ; DEN or POT disk file :      0.490 Mbytes.
================================================================================

--------------------------------------------------------------------------------
------------- Echo of variables that govern the present computation ------------
--------------------------------------------------------------------------------
-
- outvars: echo of selected default values                                      
-   iomode0 =  0 , fftalg0 =312 , wfoptalg0 =  0
-
- outvars: echo of global parameters not present in the input file              
-  max_nthreads =    8
-
 -outvars: echo values of preprocessed input variables --------
            acell      1.1993726641E+01  1.1993726641E+01  1.1993726641E+01 Bohr
              amu      1.14820000E+02  1.21753000E+02
        autoparal           1
           diemac      1.60000000E+01
             ecut      2.50000000E+01 Hartree
-          fftalg         312
           getddk1          0
           getddk2          0
           getddk3          2
           getddk4          0
           getddk5          0
           getddk6          0
           getddk7          0
           getddk8          0
           getddk9          0
           getddk10         0
           getwfk1          0
           getwfk2          1
           getwfk3          1
           getwfk4          1
           getwfk5          1
           getwfk6          1
           getwfk7          1
           getwfk8          1
           getwfk9          1
           getwfk10         1
             iscf1          7
             iscf2         -3
             iscf3          7
             iscf4          7
             iscf5          7
             iscf6          7
             iscf7          7
             iscf8          7
             iscf9          7
             iscf10         7
           jdtset        1    2    3    4    5    6    7    8    9   10
              kpt1    -6.25000000E-02 -1.25000000E-01  0.00000000E+00
                      -6.25000000E-02 -2.50000000E-01  0.00000000E+00
                      -1.25000000E-01 -1.87500000E-01  0.00000000E+00
                      -6.25000000E-02 -1.87500000E-01  6.25000000E-02
                      -6.25000000E-02 -3.75000000E-01  0.00000000E+00
                      -1.25000000E-01 -3.12500000E-01  0.00000000E+00
                      -6.25000000E-02 -3.12500000E-01  6.25000000E-02
                      -1.87500000E-01 -2.50000000E-01  0.00000000E+00
                      -1.25000000E-01 -2.50000000E-01  6.25000000E-02
                      -6.25000000E-02 -2.50000000E-01  1.25000000E-01
                      -6.25000000E-02  5.00000000E-01  0.00000000E+00
                      -1.25000000E-01 -4.37500000E-01  0.00000000E+00
                      -6.25000000E-02 -4.37500000E-01  6.25000000E-02
                      -1.87500000E-01 -3.75000000E-01  0.00000000E+00
                      -1.25000000E-01 -3.75000000E-01  6.25000000E-02
                      -6.25000000E-02 -3.75000000E-01  1.25000000E-01
                      -2.50000000E-01 -3.12500000E-01  0.00000000E+00
                      -1.87500000E-01 -3.12500000E-01  6.25000000E-02
                      -1.25000000E-01 -3.12500000E-01  1.25000000E-01
                      -6.25000000E-02 -3.12500000E-01  1.87500000E-01
                      -6.25000000E-02  3.75000000E-01  0.00000000E+00
                      -1.25000000E-01  4.37500000E-01  0.00000000E+00
                      -1.87500000E-01  5.00000000E-01  0.00000000E+00
                      -1.25000000E-01  5.00000000E-01  6.25000000E-02
                      -2.50000000E-01 -4.37500000E-01  0.00000000E+00
                      -1.87500000E-01 -4.37500000E-01  6.25000000E-02
                      -1.25000000E-01 -4.37500000E-01  1.25000000E-01
                      -6.25000000E-02 -4.37500000E-01  1.87500000E-01
                      -3.12500000E-01 -3.75000000E-01  0.00000000E+00
                      -2.50000000E-01 -3.75000000E-01  6.25000000E-02
                      -1.87500000E-01 -3.75000000E-01  1.25000000E-01
                      -1.25000000E-01 -3.75000000E-01  1.87500000E-01
                      -6.25000000E-02 -3.75000000E-01  2.50000000E-01
                      -6.25000000E-02  2.50000000E-01  0.00000000E+00
                      -1.25000000E-01  3.12500000E-01  0.00000000E+00
                      -1.87500000E-01  3.75000000E-01  0.00000000E+00
                      -2.50000000E-01  4.37500000E-01  0.00000000E+00
                      -3.12500000E-01  5.00000000E-01  0.00000000E+00
                      -2.50000000E-01  5.00000000E-01  6.25000000E-02
                      -1.87500000E-01  5.00000000E-01  1.25000000E-01
                      -3.75000000E-01 -4.37500000E-01  0.00000000E+00
                      -3.12500000E-01 -4.37500000E-01  6.25000000E-02
                      -2.50000000E-01 -4.37500000E-01  1.25000000E-01
                      -1.87500000E-01 -4.37500000E-01  1.87500000E-01
                      -1.25000000E-01 -4.37500000E-01  2.50000000E-01
                      -6.25000000E-02 -4.37500000E-01  3.12500000E-01
                      -6.25000000E-02  1.25000000E-01  0.00000000E+00
                      -1.25000000E-01  1.87500000E-01  0.00000000E+00
                      -1.87500000E-01  2.50000000E-01  0.00000000E+00
                      -2.50000000E-01  3.12500000E-01  0.00000000E+00
              kpt2    -6.25000000E-02 -1.25000000E-01  0.00000000E+00
                      -1.25000000E-01 -6.25000000E-02  0.00000000E+00
                      -6.25000000E-02 -6.25000000E-02  6.25000000E-02
                      -6.25000000E-02 -2.50000000E-01  0.00000000E+00
                      -1.25000000E-01 -1.87500000E-01  0.00000000E+00
                      -6.25000000E-02 -1.87500000E-01  6.25000000E-02
                      -1.87500000E-01 -1.25000000E-01  0.00000000E+00
                      -1.25000000E-01 -1.25000000E-01  6.25000000E-02
                      -6.25000000E-02 -1.25000000E-01  1.25000000E-01
                      -2.50000000E-01 -6.25000000E-02  0.00000000E+00
                      -1.87500000E-01 -6.25000000E-02  6.25000000E-02
                      -1.25000000E-01 -6.25000000E-02  1.25000000E-01
                      -6.25000000E-02 -6.25000000E-02  1.87500000E-01
                      -6.25000000E-02 -3.75000000E-01  0.00000000E+00
                      -1.25000000E-01 -3.12500000E-01  0.00000000E+00
                      -6.25000000E-02 -3.12500000E-01  6.25000000E-02
                      -1.87500000E-01 -2.50000000E-01  0.00000000E+00
                      -1.25000000E-01 -2.50000000E-01  6.25000000E-02
                      -6.25000000E-02 -2.50000000E-01  1.25000000E-01
                      -2.50000000E-01 -1.87500000E-01  0.00000000E+00
                      -1.87500000E-01 -1.87500000E-01  6.25000000E-02
                      -1.25000000E-01 -1.87500000E-01  1.25000000E-01
                      -6.25000000E-02 -1.87500000E-01  1.87500000E-01
                      -3.12500000E-01 -1.25000000E-01  0.00000000E+00
                      -2.50000000E-01 -1.25000000E-01  6.25000000E-02
                      -1.87500000E-01 -1.25000000E-01  1.25000000E-01
                      -1.25000000E-01 -1.25000000E-01  1.87500000E-01
                      -6.25000000E-02 -1.25000000E-01  2.50000000E-01
                      -3.75000000E-01 -6.25000000E-02  0.00000000E+00
                      -3.12500000E-01 -6.25000000E-02  6.25000000E-02
                      -2.50000000E-01 -6.25000000E-02  1.25000000E-01
                      -1.87500000E-01 -6.25000000E-02  1.87500000E-01
                      -1.25000000E-01 -6.25000000E-02  2.50000000E-01
                      -6.25000000E-02 -6.25000000E-02  3.12500000E-01
                      -6.25000000E-02  5.00000000E-01  0.00000000E+00
                      -1.25000000E-01 -4.37500000E-01  0.00000000E+00
                      -6.25000000E-02 -4.37500000E-01  6.25000000E-02
                      -1.87500000E-01 -3.75000000E-01  0.00000000E+00
                      -1.25000000E-01 -3.75000000E-01  6.25000000E-02
                      -6.25000000E-02 -3.75000000E-01  1.25000000E-01
                      -2.50000000E-01 -3.12500000E-01  0.00000000E+00
                      -1.87500000E-01 -3.12500000E-01  6.25000000E-02
                      -1.25000000E-01 -3.12500000E-01  1.25000000E-01
                      -6.25000000E-02 -3.12500000E-01  1.87500000E-01
                      -3.12500000E-01 -2.50000000E-01  0.00000000E+00
                      -2.50000000E-01 -2.50000000E-01  6.25000000E-02
                      -1.87500000E-01 -2.50000000E-01  1.25000000E-01
                      -1.25000000E-01 -2.50000000E-01  1.87500000E-01
                      -6.25000000E-02 -2.50000000E-01  2.50000000E-01
                      -3.75000000E-01 -1.87500000E-01  0.00000000E+00
              kpt3    -6.25000000E-02 -1.25000000E-01  0.00000000E+00
                      -1.25000000E-01 -6.25000000E-02  0.00000000E+00
                      -6.25000000E-02 -6.25000000E-02  6.25000000E-02
                      -6.25000000E-02 -2.50000000E-01  0.00000000E+00
                      -1.25000000E-01 -1.87500000E-01  0.00000000E+00
                      -6.25000000E-02 -1.87500000E-01  6.25000000E-02
                      -1.87500000E-01 -1.25000000E-01  0.00000000E+00
                      -1.25000000E-01 -1.25000000E-01  6.25000000E-02
                      -6.25000000E-02 -1.25000000E-01  1.25000000E-01
                      -2.50000000E-01 -6.25000000E-02  0.00000000E+00
                      -1.87500000E-01 -6.25000000E-02  6.25000000E-02
                      -1.25000000E-01 -6.25000000E-02  1.25000000E-01
                      -6.25000000E-02 -6.25000000E-02  1.87500000E-01
                      -6.25000000E-02 -3.75000000E-01  0.00000000E+00
                      -1.25000000E-01 -3.12500000E-01  0.00000000E+00
                      -6.25000000E-02 -3.12500000E-01  6.25000000E-02
                      -1.87500000E-01 -2.50000000E-01  0.00000000E+00
                      -1.25000000E-01 -2.50000000E-01  6.25000000E-02
                      -6.25000000E-02 -2.50000000E-01  1.25000000E-01
                      -2.50000000E-01 -1.87500000E-01  0.00000000E+00
                      -1.87500000E-01 -1.87500000E-01  6.25000000E-02
                      -1.25000000E-01 -1.87500000E-01  1.25000000E-01
                      -6.25000000E-02 -1.87500000E-01  1.87500000E-01
                      -3.12500000E-01 -1.25000000E-01  0.00000000E+00
                      -2.50000000E-01 -1.25000000E-01  6.25000000E-02
                      -1.87500000E-01 -1.25000000E-01  1.25000000E-01
                      -1.25000000E-01 -1.25000000E-01  1.87500000E-01
                      -6.25000000E-02 -1.25000000E-01  2.50000000E-01
                      -3.75000000E-01 -6.25000000E-02  0.00000000E+00
                      -3.12500000E-01 -6.25000000E-02  6.25000000E-02
                      -2.50000000E-01 -6.25000000E-02  1.25000000E-01
                      -1.87500000E-01 -6.25000000E-02  1.87500000E-01
                      -1.25000000E-01 -6.25000000E-02  2.50000000E-01
                      -6.25000000E-02 -6.25000000E-02  3.12500000E-01
                      -6.25000000E-02  5.00000000E-01  0.00000000E+00
                      -1.25000000E-01 -4.37500000E-01  0.00000000E+00
                      -6.25000000E-02 -4.37500000E-01  6.25000000E-02
                      -1.87500000E-01 -3.75000000E-01  0.00000000E+00
                      -1.25000000E-01 -3.75000000E-01  6.25000000E-02
                      -6.25000000E-02 -3.75000000E-01  1.25000000E-01
                      -2.50000000E-01 -3.12500000E-01  0.00000000E+00
                      -1.87500000E-01 -3.12500000E-01  6.25000000E-02
                      -1.25000000E-01 -3.12500000E-01  1.25000000E-01
                      -6.25000000E-02 -3.12500000E-01  1.87500000E-01
                      -3.12500000E-01 -2.50000000E-01  0.00000000E+00
                      -2.50000000E-01 -2.50000000E-01  6.25000000E-02
                      -1.87500000E-01 -2.50000000E-01  1.25000000E-01
                      -1.25000000E-01 -2.50000000E-01  1.87500000E-01
                      -6.25000000E-02 -2.50000000E-01  2.50000000E-01
                      -3.75000000E-01 -1.87500000E-01  0.00000000E+00
              kpt4    -6.25000000E-02 -1.25000000E-01  0.00000000E+00
                      -1.25000000E-01 -6.25000000E-02  0.00000000E+00
                      -6.25000000E-02 -6.25000000E-02  6.25000000E-02
                      -6.25000000E-02 -2.50000000E-01  0.00000000E+00
                      -1.25000000E-01 -1.87500000E-01  0.00000000E+00
                      -6.25000000E-02 -1.87500000E-01  6.25000000E-02
                      -1.87500000E-01 -1.25000000E-01  0.00000000E+00
                      -1.25000000E-01 -1.25000000E-01  6.25000000E-02
                      -6.25000000E-02 -1.25000000E-01  1.25000000E-01
                      -2.50000000E-01 -6.25000000E-02  0.00000000E+00
                      -1.87500000E-01 -6.25000000E-02  6.25000000E-02
                      -1.25000000E-01 -6.25000000E-02  1.25000000E-01
                      -6.25000000E-02 -6.25000000E-02  1.87500000E-01
                      -6.25000000E-02 -3.75000000E-01  0.00000000E+00
                      -1.25000000E-01 -3.12500000E-01  0.00000000E+00
                      -6.25000000E-02 -3.12500000E-01  6.25000000E-02
                      -1.87500000E-01 -2.50000000E-01  0.00000000E+00
                      -1.25000000E-01 -2.50000000E-01  6.25000000E-02
                      -6.25000000E-02 -2.50000000E-01  1.25000000E-01
                      -2.50000000E-01 -1.87500000E-01  0.00000000E+00
                      -1.87500000E-01 -1.87500000E-01  6.25000000E-02
                      -1.25000000E-01 -1.87500000E-01  1.25000000E-01
                      -6.25000000E-02 -1.87500000E-01  1.87500000E-01
                      -3.12500000E-01 -1.25000000E-01  0.00000000E+00
                      -2.50000000E-01 -1.25000000E-01  6.25000000E-02
                      -1.87500000E-01 -1.25000000E-01  1.25000000E-01
                      -1.25000000E-01 -1.25000000E-01  1.87500000E-01
                      -6.25000000E-02 -1.25000000E-01  2.50000000E-01
                      -3.75000000E-01 -6.25000000E-02  0.00000000E+00
                      -3.12500000E-01 -6.25000000E-02  6.25000000E-02
                      -2.50000000E-01 -6.25000000E-02  1.25000000E-01
                      -1.87500000E-01 -6.25000000E-02  1.87500000E-01
                      -1.25000000E-01 -6.25000000E-02  2.50000000E-01
                      -6.25000000E-02 -6.25000000E-02  3.12500000E-01
                      -6.25000000E-02  5.00000000E-01  0.00000000E+00
                      -1.25000000E-01 -4.37500000E-01  0.00000000E+00
                      -6.25000000E-02 -4.37500000E-01  6.25000000E-02
                      -1.87500000E-01 -3.75000000E-01  0.00000000E+00
                      -1.25000000E-01 -3.75000000E-01  6.25000000E-02
                      -6.25000000E-02 -3.75000000E-01  1.25000000E-01
                      -2.50000000E-01 -3.12500000E-01  0.00000000E+00
                      -1.87500000E-01 -3.12500000E-01  6.25000000E-02
                      -1.25000000E-01 -3.12500000E-01  1.25000000E-01
                      -6.25000000E-02 -3.12500000E-01  1.87500000E-01
                      -3.12500000E-01 -2.50000000E-01  0.00000000E+00
                      -2.50000000E-01 -2.50000000E-01  6.25000000E-02
                      -1.87500000E-01 -2.50000000E-01  1.25000000E-01
                      -1.25000000E-01 -2.50000000E-01  1.87500000E-01
                      -6.25000000E-02 -2.50000000E-01  2.50000000E-01
                      -3.75000000E-01 -1.87500000E-01  0.00000000E+00
              kpt5    -6.25000000E-02 -1.25000000E-01  0.00000000E+00
                      -1.25000000E-01 -6.25000000E-02  0.00000000E+00
                      -6.25000000E-02 -6.25000000E-02  6.25000000E-02
                      -6.25000000E-02 -2.50000000E-01  0.00000000E+00
                      -1.25000000E-01 -1.87500000E-01  0.00000000E+00
                      -6.25000000E-02 -1.87500000E-01  6.25000000E-02
                      -1.87500000E-01 -1.25000000E-01  0.00000000E+00
                      -1.25000000E-01 -1.25000000E-01  6.25000000E-02
                      -6.25000000E-02 -1.25000000E-01  1.25000000E-01
                      -2.50000000E-01 -6.25000000E-02  0.00000000E+00
                      -1.87500000E-01 -6.25000000E-02  6.25000000E-02
                      -1.25000000E-01 -6.25000000E-02  1.25000000E-01
                      -6.25000000E-02 -6.25000000E-02  1.87500000E-01
                      -6.25000000E-02 -3.75000000E-01  0.00000000E+00
                      -1.25000000E-01 -3.12500000E-01  0.00000000E+00
                      -6.25000000E-02 -3.12500000E-01  6.25000000E-02
                      -1.87500000E-01 -2.50000000E-01  0.00000000E+00
                      -1.25000000E-01 -2.50000000E-01  6.25000000E-02
                      -6.25000000E-02 -2.50000000E-01  1.25000000E-01
                      -2.50000000E-01 -1.87500000E-01  0.00000000E+00
                      -1.87500000E-01 -1.87500000E-01  6.25000000E-02
                      -1.25000000E-01 -1.87500000E-01  1.25000000E-01
                      -6.25000000E-02 -1.87500000E-01  1.87500000E-01
                      -3.12500000E-01 -1.25000000E-01  0.00000000E+00
                      -2.50000000E-01 -1.25000000E-01  6.25000000E-02
                      -1.87500000E-01 -1.25000000E-01  1.25000000E-01
                      -1.25000000E-01 -1.25000000E-01  1.87500000E-01
                      -6.25000000E-02 -1.25000000E-01  2.50000000E-01
                      -3.75000000E-01 -6.25000000E-02  0.00000000E+00
                      -3.12500000E-01 -6.25000000E-02  6.25000000E-02
                      -2.50000000E-01 -6.25000000E-02  1.25000000E-01
                      -1.87500000E-01 -6.25000000E-02  1.87500000E-01
                      -1.25000000E-01 -6.25000000E-02  2.50000000E-01
                      -6.25000000E-02 -6.25000000E-02  3.12500000E-01
                      -6.25000000E-02  5.00000000E-01  0.00000000E+00
                      -1.25000000E-01 -4.37500000E-01  0.00000000E+00
                      -6.25000000E-02 -4.37500000E-01  6.25000000E-02
                      -1.87500000E-01 -3.75000000E-01  0.00000000E+00
                      -1.25000000E-01 -3.75000000E-01  6.25000000E-02
                      -6.25000000E-02 -3.75000000E-01  1.25000000E-01
                      -2.50000000E-01 -3.12500000E-01  0.00000000E+00
                      -1.87500000E-01 -3.12500000E-01  6.25000000E-02
                      -1.25000000E-01 -3.12500000E-01  1.25000000E-01
                      -6.25000000E-02 -3.12500000E-01  1.87500000E-01
                      -3.12500000E-01 -2.50000000E-01  0.00000000E+00
                      -2.50000000E-01 -2.50000000E-01  6.25000000E-02
                      -1.87500000E-01 -2.50000000E-01  1.25000000E-01
                      -1.25000000E-01 -2.50000000E-01  1.87500000E-01
                      -6.25000000E-02 -2.50000000E-01  2.50000000E-01
                      -3.75000000E-01 -1.87500000E-01  0.00000000E+00
              kpt6    -6.25000000E-02 -1.25000000E-01  0.00000000E+00
                      -1.25000000E-01 -6.25000000E-02  0.00000000E+00
                      -6.25000000E-02 -6.25000000E-02  6.25000000E-02
                      -6.25000000E-02 -2.50000000E-01  0.00000000E+00
                      -1.25000000E-01 -1.87500000E-01  0.00000000E+00
                      -6.25000000E-02 -1.87500000E-01  6.25000000E-02
                      -1.87500000E-01 -1.25000000E-01  0.00000000E+00
                      -1.25000000E-01 -1.25000000E-01  6.25000000E-02
                      -6.25000000E-02 -1.25000000E-01  1.25000000E-01
                      -2.50000000E-01 -6.25000000E-02  0.00000000E+00
                      -1.87500000E-01 -6.25000000E-02  6.25000000E-02
                      -1.25000000E-01 -6.25000000E-02  1.25000000E-01
                      -6.25000000E-02 -6.25000000E-02  1.87500000E-01
                      -6.25000000E-02 -3.75000000E-01  0.00000000E+00
                      -1.25000000E-01 -3.12500000E-01  0.00000000E+00
                      -6.25000000E-02 -3.12500000E-01  6.25000000E-02
                      -1.87500000E-01 -2.50000000E-01  0.00000000E+00
                      -1.25000000E-01 -2.50000000E-01  6.25000000E-02
                      -6.25000000E-02 -2.50000000E-01  1.25000000E-01
                      -2.50000000E-01 -1.87500000E-01  0.00000000E+00
                      -1.87500000E-01 -1.87500000E-01  6.25000000E-02
                      -1.25000000E-01 -1.87500000E-01  1.25000000E-01
                      -6.25000000E-02 -1.87500000E-01  1.87500000E-01
                      -3.12500000E-01 -1.25000000E-01  0.00000000E+00
                      -2.50000000E-01 -1.25000000E-01  6.25000000E-02
                      -1.87500000E-01 -1.25000000E-01  1.25000000E-01
                      -1.25000000E-01 -1.25000000E-01  1.87500000E-01
                      -6.25000000E-02 -1.25000000E-01  2.50000000E-01
                      -3.75000000E-01 -6.25000000E-02  0.00000000E+00
                      -3.12500000E-01 -6.25000000E-02  6.25000000E-02
                      -2.50000000E-01 -6.25000000E-02  1.25000000E-01
                      -1.87500000E-01 -6.25000000E-02  1.87500000E-01
                      -1.25000000E-01 -6.25000000E-02  2.50000000E-01
                      -6.25000000E-02 -6.25000000E-02  3.12500000E-01
                      -6.25000000E-02  5.00000000E-01  0.00000000E+00
                      -1.25000000E-01 -4.37500000E-01  0.00000000E+00
                      -6.25000000E-02 -4.37500000E-01  6.25000000E-02
                      -1.87500000E-01 -3.75000000E-01  0.00000000E+00
                      -1.25000000E-01 -3.75000000E-01  6.25000000E-02
                      -6.25000000E-02 -3.75000000E-01  1.25000000E-01
                      -2.50000000E-01 -3.12500000E-01  0.00000000E+00
                      -1.87500000E-01 -3.12500000E-01  6.25000000E-02
                      -1.25000000E-01 -3.12500000E-01  1.25000000E-01
                      -6.25000000E-02 -3.12500000E-01  1.87500000E-01
                      -3.12500000E-01 -2.50000000E-01  0.00000000E+00
                      -2.50000000E-01 -2.50000000E-01  6.25000000E-02
                      -1.87500000E-01 -2.50000000E-01  1.25000000E-01
                      -1.25000000E-01 -2.50000000E-01  1.87500000E-01
                      -6.25000000E-02 -2.50000000E-01  2.50000000E-01
                      -3.75000000E-01 -1.87500000E-01  0.00000000E+00
              kpt7    -6.25000000E-02 -1.25000000E-01  0.00000000E+00
                      -1.25000000E-01 -6.25000000E-02  0.00000000E+00
                      -6.25000000E-02 -6.25000000E-02  6.25000000E-02
                      -6.25000000E-02 -2.50000000E-01  0.00000000E+00
                      -1.25000000E-01 -1.87500000E-01  0.00000000E+00
                      -6.25000000E-02 -1.87500000E-01  6.25000000E-02
                      -1.87500000E-01 -1.25000000E-01  0.00000000E+00
                      -1.25000000E-01 -1.25000000E-01  6.25000000E-02
                      -6.25000000E-02 -1.25000000E-01  1.25000000E-01
                      -2.50000000E-01 -6.25000000E-02  0.00000000E+00
                      -1.87500000E-01 -6.25000000E-02  6.25000000E-02
                      -1.25000000E-01 -6.25000000E-02  1.25000000E-01
                      -6.25000000E-02 -6.25000000E-02  1.87500000E-01
                      -6.25000000E-02 -3.75000000E-01  0.00000000E+00
                      -1.25000000E-01 -3.12500000E-01  0.00000000E+00
                      -6.25000000E-02 -3.12500000E-01  6.25000000E-02
                      -1.87500000E-01 -2.50000000E-01  0.00000000E+00
                      -1.25000000E-01 -2.50000000E-01  6.25000000E-02
                      -6.25000000E-02 -2.50000000E-01  1.25000000E-01
                      -2.50000000E-01 -1.87500000E-01  0.00000000E+00
                      -1.87500000E-01 -1.87500000E-01  6.25000000E-02
                      -1.25000000E-01 -1.87500000E-01  1.25000000E-01
                      -6.25000000E-02 -1.87500000E-01  1.87500000E-01
                      -3.12500000E-01 -1.25000000E-01  0.00000000E+00
                      -2.50000000E-01 -1.25000000E-01  6.25000000E-02
                      -1.87500000E-01 -1.25000000E-01  1.25000000E-01
                      -1.25000000E-01 -1.25000000E-01  1.87500000E-01
                      -6.25000000E-02 -1.25000000E-01  2.50000000E-01
                      -3.75000000E-01 -6.25000000E-02  0.00000000E+00
                      -3.12500000E-01 -6.25000000E-02  6.25000000E-02
                      -2.50000000E-01 -6.25000000E-02  1.25000000E-01
                      -1.87500000E-01 -6.25000000E-02  1.87500000E-01
                      -1.25000000E-01 -6.25000000E-02  2.50000000E-01
                      -6.25000000E-02 -6.25000000E-02  3.12500000E-01
                      -6.25000000E-02  5.00000000E-01  0.00000000E+00
                      -1.25000000E-01 -4.37500000E-01  0.00000000E+00
                      -6.25000000E-02 -4.37500000E-01  6.25000000E-02
                      -1.87500000E-01 -3.75000000E-01  0.00000000E+00
                      -1.25000000E-01 -3.75000000E-01  6.25000000E-02
                      -6.25000000E-02 -3.75000000E-01  1.25000000E-01
                      -2.50000000E-01 -3.12500000E-01  0.00000000E+00
                      -1.87500000E-01 -3.12500000E-01  6.25000000E-02
                      -1.25000000E-01 -3.12500000E-01  1.25000000E-01
                      -6.25000000E-02 -3.12500000E-01  1.87500000E-01
                      -3.12500000E-01 -2.50000000E-01  0.00000000E+00
                      -2.50000000E-01 -2.50000000E-01  6.25000000E-02
                      -1.87500000E-01 -2.50000000E-01  1.25000000E-01
                      -1.25000000E-01 -2.50000000E-01  1.87500000E-01
                      -6.25000000E-02 -2.50000000E-01  2.50000000E-01
                      -3.75000000E-01 -1.87500000E-01  0.00000000E+00
              kpt8    -6.25000000E-02 -1.25000000E-01  0.00000000E+00
                      -1.25000000E-01 -6.25000000E-02  0.00000000E+00
                      -6.25000000E-02 -6.25000000E-02  6.25000000E-02
                      -6.25000000E-02 -2.50000000E-01  0.00000000E+00
                      -1.25000000E-01 -1.87500000E-01  0.00000000E+00
                      -6.25000000E-02 -1.87500000E-01  6.25000000E-02
                      -1.87500000E-01 -1.25000000E-01  0.00000000E+00
                      -1.25000000E-01 -1.25000000E-01  6.25000000E-02
                      -6.25000000E-02 -1.25000000E-01  1.25000000E-01
                      -2.50000000E-01 -6.25000000E-02  0.00000000E+00
                      -1.87500000E-01 -6.25000000E-02  6.25000000E-02
                      -1.25000000E-01 -6.25000000E-02  1.25000000E-01
                      -6.25000000E-02 -6.25000000E-02  1.87500000E-01
                      -6.25000000E-02 -3.75000000E-01  0.00000000E+00
                      -1.25000000E-01 -3.12500000E-01  0.00000000E+00
                      -6.25000000E-02 -3.12500000E-01  6.25000000E-02
                      -1.87500000E-01 -2.50000000E-01  0.00000000E+00
                      -1.25000000E-01 -2.50000000E-01  6.25000000E-02
                      -6.25000000E-02 -2.50000000E-01  1.25000000E-01
                      -2.50000000E-01 -1.87500000E-01  0.00000000E+00
                      -1.87500000E-01 -1.87500000E-01  6.25000000E-02
                      -1.25000000E-01 -1.87500000E-01  1.25000000E-01
                      -6.25000000E-02 -1.87500000E-01  1.87500000E-01
                      -3.12500000E-01 -1.25000000E-01  0.00000000E+00
                      -2.50000000E-01 -1.25000000E-01  6.25000000E-02
                      -1.87500000E-01 -1.25000000E-01  1.25000000E-01
                      -1.25000000E-01 -1.25000000E-01  1.87500000E-01
                      -6.25000000E-02 -1.25000000E-01  2.50000000E-01
                      -3.75000000E-01 -6.25000000E-02  0.00000000E+00
                      -3.12500000E-01 -6.25000000E-02  6.25000000E-02
                      -2.50000000E-01 -6.25000000E-02  1.25000000E-01
                      -1.87500000E-01 -6.25000000E-02  1.87500000E-01
                      -1.25000000E-01 -6.25000000E-02  2.50000000E-01
                      -6.25000000E-02 -6.25000000E-02  3.12500000E-01
                      -6.25000000E-02  5.00000000E-01  0.00000000E+00
                      -1.25000000E-01 -4.37500000E-01  0.00000000E+00
                      -6.25000000E-02 -4.37500000E-01  6.25000000E-02
                      -1.87500000E-01 -3.75000000E-01  0.00000000E+00
                      -1.25000000E-01 -3.75000000E-01  6.25000000E-02
                      -6.25000000E-02 -3.75000000E-01  1.25000000E-01
                      -2.50000000E-01 -3.12500000E-01  0.00000000E+00
                      -1.87500000E-01 -3.12500000E-01  6.25000000E-02
                      -1.25000000E-01 -3.12500000E-01  1.25000000E-01
                      -6.25000000E-02 -3.12500000E-01  1.87500000E-01
                      -3.12500000E-01 -2.50000000E-01  0.00000000E+00
                      -2.50000000E-01 -2.50000000E-01  6.25000000E-02
                      -1.87500000E-01 -2.50000000E-01  1.25000000E-01
                      -1.25000000E-01 -2.50000000E-01  1.87500000E-01
                      -6.25000000E-02 -2.50000000E-01  2.50000000E-01
                      -3.75000000E-01 -1.87500000E-01  0.00000000E+00
              kpt9    -6.25000000E-02 -1.25000000E-01  0.00000000E+00
                      -1.25000000E-01 -6.25000000E-02  0.00000000E+00
                      -6.25000000E-02 -6.25000000E-02  6.25000000E-02
                      -6.25000000E-02 -2.50000000E-01  0.00000000E+00
                      -1.25000000E-01 -1.87500000E-01  0.00000000E+00
                      -6.25000000E-02 -1.87500000E-01  6.25000000E-02
                      -1.87500000E-01 -1.25000000E-01  0.00000000E+00
                      -1.25000000E-01 -1.25000000E-01  6.25000000E-02
                      -6.25000000E-02 -1.25000000E-01  1.25000000E-01
                      -2.50000000E-01 -6.25000000E-02  0.00000000E+00
                      -1.87500000E-01 -6.25000000E-02  6.25000000E-02
                      -1.25000000E-01 -6.25000000E-02  1.25000000E-01
                      -6.25000000E-02 -6.25000000E-02  1.87500000E-01
                      -6.25000000E-02 -3.75000000E-01  0.00000000E+00
                      -1.25000000E-01 -3.12500000E-01  0.00000000E+00
                      -6.25000000E-02 -3.12500000E-01  6.25000000E-02
                      -1.87500000E-01 -2.50000000E-01  0.00000000E+00
                      -1.25000000E-01 -2.50000000E-01  6.25000000E-02
                      -6.25000000E-02 -2.50000000E-01  1.25000000E-01
                      -2.50000000E-01 -1.87500000E-01  0.00000000E+00
                      -1.87500000E-01 -1.87500000E-01  6.25000000E-02
                      -1.25000000E-01 -1.87500000E-01  1.25000000E-01
                      -6.25000000E-02 -1.87500000E-01  1.87500000E-01
                      -3.12500000E-01 -1.25000000E-01  0.00000000E+00
                      -2.50000000E-01 -1.25000000E-01  6.25000000E-02
                      -1.87500000E-01 -1.25000000E-01  1.25000000E-01
                      -1.25000000E-01 -1.25000000E-01  1.87500000E-01
                      -6.25000000E-02 -1.25000000E-01  2.50000000E-01
                      -3.75000000E-01 -6.25000000E-02  0.00000000E+00
                      -3.12500000E-01 -6.25000000E-02  6.25000000E-02
                      -2.50000000E-01 -6.25000000E-02  1.25000000E-01
                      -1.87500000E-01 -6.25000000E-02  1.87500000E-01
                      -1.25000000E-01 -6.25000000E-02  2.50000000E-01
                      -6.25000000E-02 -6.25000000E-02  3.12500000E-01
                      -6.25000000E-02  5.00000000E-01  0.00000000E+00
                      -1.25000000E-01 -4.37500000E-01  0.00000000E+00
                      -6.25000000E-02 -4.37500000E-01  6.25000000E-02
                      -1.87500000E-01 -3.75000000E-01  0.00000000E+00
                      -1.25000000E-01 -3.75000000E-01  6.25000000E-02
                      -6.25000000E-02 -3.75000000E-01  1.25000000E-01
                      -2.50000000E-01 -3.12500000E-01  0.00000000E+00
                      -1.87500000E-01 -3.12500000E-01  6.25000000E-02
                      -1.25000000E-01 -3.12500000E-01  1.25000000E-01
                      -6.25000000E-02 -3.12500000E-01  1.87500000E-01
                      -3.12500000E-01 -2.50000000E-01  0.00000000E+00
                      -2.50000000E-01 -2.50000000E-01  6.25000000E-02
                      -1.87500000E-01 -2.50000000E-01  1.25000000E-01
                      -1.25000000E-01 -2.50000000E-01  1.87500000E-01
                      -6.25000000E-02 -2.50000000E-01  2.50000000E-01
                      -3.75000000E-01 -1.87500000E-01  0.00000000E+00
              kpt10   -6.25000000E-02 -1.25000000E-01  0.00000000E+00
                      -1.25000000E-01 -6.25000000E-02  0.00000000E+00
                      -6.25000000E-02 -6.25000000E-02  6.25000000E-02
                      -6.25000000E-02 -2.50000000E-01  0.00000000E+00
                      -1.25000000E-01 -1.87500000E-01  0.00000000E+00
                      -6.25000000E-02 -1.87500000E-01  6.25000000E-02
                      -1.87500000E-01 -1.25000000E-01  0.00000000E+00
                      -1.25000000E-01 -1.25000000E-01  6.25000000E-02
                      -6.25000000E-02 -1.25000000E-01  1.25000000E-01
                      -2.50000000E-01 -6.25000000E-02  0.00000000E+00
                      -1.87500000E-01 -6.25000000E-02  6.25000000E-02
                      -1.25000000E-01 -6.25000000E-02  1.25000000E-01
                      -6.25000000E-02 -6.25000000E-02  1.87500000E-01
                      -6.25000000E-02 -3.75000000E-01  0.00000000E+00
                      -1.25000000E-01 -3.12500000E-01  0.00000000E+00
                      -6.25000000E-02 -3.12500000E-01  6.25000000E-02
                      -1.87500000E-01 -2.50000000E-01  0.00000000E+00
                      -1.25000000E-01 -2.50000000E-01  6.25000000E-02
                      -6.25000000E-02 -2.50000000E-01  1.25000000E-01
                      -2.50000000E-01 -1.87500000E-01  0.00000000E+00
                      -1.87500000E-01 -1.87500000E-01  6.25000000E-02
                      -1.25000000E-01 -1.87500000E-01  1.25000000E-01
                      -6.25000000E-02 -1.87500000E-01  1.87500000E-01
                      -3.12500000E-01 -1.25000000E-01  0.00000000E+00
                      -2.50000000E-01 -1.25000000E-01  6.25000000E-02
                      -1.87500000E-01 -1.25000000E-01  1.25000000E-01
                      -1.25000000E-01 -1.25000000E-01  1.87500000E-01
                      -6.25000000E-02 -1.25000000E-01  2.50000000E-01
                      -3.75000000E-01 -6.25000000E-02  0.00000000E+00
                      -3.12500000E-01 -6.25000000E-02  6.25000000E-02
                      -2.50000000E-01 -6.25000000E-02  1.25000000E-01
                      -1.87500000E-01 -6.25000000E-02  1.87500000E-01
                      -1.25000000E-01 -6.25000000E-02  2.50000000E-01
                      -6.25000000E-02 -6.25000000E-02  3.12500000E-01
                      -6.25000000E-02  5.00000000E-01  0.00000000E+00
                      -1.25000000E-01 -4.37500000E-01  0.00000000E+00
                      -6.25000000E-02 -4.37500000E-01  6.25000000E-02
                      -1.87500000E-01 -3.75000000E-01  0.00000000E+00
                      -1.25000000E-01 -3.75000000E-01  6.25000000E-02
                      -6.25000000E-02 -3.75000000E-01  1.25000000E-01
                      -2.50000000E-01 -3.12500000E-01  0.00000000E+00
                      -1.87500000E-01 -3.12500000E-01  6.25000000E-02
                      -1.25000000E-01 -3.12500000E-01  1.25000000E-01
                      -6.25000000E-02 -3.12500000E-01  1.87500000E-01
                      -3.12500000E-01 -2.50000000E-01  0.00000000E+00
                      -2.50000000E-01 -2.50000000E-01  6.25000000E-02
                      -1.87500000E-01 -2.50000000E-01  1.25000000E-01
                      -1.25000000E-01 -2.50000000E-01  1.87500000E-01
                      -6.25000000E-02 -2.50000000E-01  2.50000000E-01
                      -3.75000000E-01 -1.87500000E-01  0.00000000E+00
                       outvar_i_n : Printing only first  50 k-points.
           kptopt1          1
           kptopt2          2
           kptopt3          2
           kptopt4          3
           kptopt5          3
           kptopt6          3
           kptopt7          3
           kptopt8          3
           kptopt9          3
           kptopt10         3
         kptrlatt        8   -8    8     -8    8    8     -8   -8    8
          kptrlen      9.59498131E+01
P           mkmem1         15
P           mkmem2        512
P           mkmem3        512
P           mkmem4       1024
P           mkmem5       1024
P           mkmem6       1024
P           mkmem7       1024
P           mkmem8       1024
P           mkmem9       1024
P           mkmem10      1024
P          mkqmem1         15
P          mkqmem2        512
P          mkqmem3        512
P          mkqmem4       1024
P          mkqmem5       1024
P          mkqmem6       1024
P          mkqmem7       1024
P          mkqmem8       1024
P          mkqmem9       1024
P          mkqmem10      1024
P          mk1mem1         15
P          mk1mem2        512
P          mk1mem3        512
P          mk1mem4       1024
P          mk1mem5       1024
P          mk1mem6       1024
P          mk1mem7       1024
P          mk1mem8       1024
P          mk1mem9       1024
P          mk1mem10      1024
            natom           2
            nband1          4
            nband2          4
            nband3          4
            nband4          4
            nband5          4
            nband6          4
            nband7          4
            nband8          4
            nband9          4
            nband10         4
           ndtset          10
            ngfft          40      40      40
             nkpt1         60
             nkpt2       1024
             nkpt3       1024
             nkpt4       2048
             nkpt5       2048
             nkpt6       2048
             nkpt7       2048
             nkpt8       2048
             nkpt9       2048
             nkpt10      2048
-           npkpt1          4
-           npkpt2          1
-           npkpt3          1
-           npkpt4          1
-           npkpt5          1
-           npkpt6          1
-           npkpt7          1
-           npkpt8          1
-           npkpt9          1
-           npkpt10         1
             nqpt1          0
             nqpt2          1
             nqpt3          1
             nqpt4          1
             nqpt5          1
             nqpt6          1
             nqpt7          1
             nqpt8          1
             nqpt9          1
             nqpt10         1
            nstep         100
             nsym          24
           ntypat           2
              occ1     2.000000  2.000000  2.000000  2.000000
              occ2     2.000000  2.000000  2.000000  2.000000
              occ3     2.000000  2.000000  2.000000  2.000000
              occ4     2.000000  2.000000  2.000000  2.000000
              occ5     2.000000  2.000000  2.000000  2.000000
              occ6     2.000000  2.000000  2.000000  2.000000
              occ7     2.000000  2.000000  2.000000  2.000000
              occ8     2.000000  2.000000  2.000000  2.000000
              occ9     2.000000  2.000000  2.000000  2.000000
              occ10    2.000000  2.000000  2.000000  2.000000
        optdriver1          0
        optdriver2          1
        optdriver3          1
        optdriver4          1
        optdriver5          1
        optdriver6          1
        optdriver7          1
        optdriver8          1
        optdriver9          1
        optdriver10         1
              qpt1     0.00000000E+00  0.00000000E+00  0.00000000E+00
              qpt2     0.00000000E+00  0.00000000E+00  0.00000000E+00
              qpt3     0.00000000E+00  0.00000000E+00  0.00000000E+00
              qpt4     2.50000000E-01  0.00000000E+00  0.00000000E+00
              qpt5     5.00000000E-01  0.00000000E+00  0.00000000E+00
              qpt6     2.50000000E-01  2.50000000E-01  0.00000000E+00
              qpt7     5.00000000E-01  2.50000000E-01  0.00000000E+00
              qpt8    -2.50000000E-01  2.50000000E-01  0.00000000E+00
              qpt9     5.00000000E-01  5.00000000E-01  0.00000000E+00
              qpt10   -2.50000000E-01  5.00000000E-01  2.50000000E-01
          rfatpol           1       2
            rfdir           1       1       1
           rfelfd1          0
           rfelfd2          2
           rfelfd3          3
           rfelfd4          0
           rfelfd5          0
           rfelfd6          0
           rfelfd7          0
           rfelfd8          0
           rfelfd9          0
           rfelfd10         0
           rfphon1          0
           rfphon2          0
           rfphon3          1
           rfphon4          1
           rfphon5          1
           rfphon6          1
           rfphon7          1
           rfphon8          1
           rfphon9          1
           rfphon10         1
            rprim      0.0000000000E+00  5.0000000000E-01  5.0000000000E-01
                       5.0000000000E-01  0.0000000000E+00  5.0000000000E-01
                       5.0000000000E-01  5.0000000000E-01  0.0000000000E+00
           shiftk      5.00000000E-01  5.00000000E-01  5.00000000E-01
          spgroup         216
           symrel      1  0  0   0  1  0   0  0  1       0 -1  1   0 -1  0   1 -1  0
                      -1  0  0  -1  0  1  -1  1  0       0  1 -1   1  0 -1   0  0 -1
                      -1  0  0  -1  1  0  -1  0  1       0 -1  1   1 -1  0   0 -1  0
                       1  0  0   0  0  1   0  1  0       0  1 -1   0  0 -1   1  0 -1
                      -1  0  1  -1  1  0  -1  0  0       0 -1  0   1 -1  0   0 -1  1
                       1  0 -1   0  0 -1   0  1 -1       0  1  0   0  0  1   1  0  0
                       1  0 -1   0  1 -1   0  0 -1       0 -1  0   0 -1  1   1 -1  0
                      -1  0  1  -1  0  0  -1  1  0       0  1  0   1  0  0   0  0  1
                       0  0 -1   0  1 -1   1  0 -1       1 -1  0   0 -1  1   0 -1  0
                       0  0  1   1  0  0   0  1  0      -1  1  0  -1  0  0  -1  0  1
                       0  0  1   0  1  0   1  0  0       1 -1  0   0 -1  0   0 -1  1
                       0  0 -1   1  0 -1   0  1 -1      -1  1  0  -1  0  1  -1  0  0
           tolvrs1     1.00000000E-18
           tolvrs2     0.00000000E+00
           tolvrs3     1.00000000E-12
           tolvrs4     1.00000000E-12
           tolvrs5     1.00000000E-12
           tolvrs6     1.00000000E-12
           tolvrs7     1.00000000E-12
           tolvrs8     1.00000000E-12
           tolvrs9     1.00000000E-12
           tolvrs10    1.00000000E-12
           tolwfr1     0.00000000E+00
           tolwfr2     1.00000000E-22
           tolwfr3     0.00000000E+00
           tolwfr4     0.00000000E+00
           tolwfr5     0.00000000E+00
           tolwfr6     0.00000000E+00
           tolwfr7     0.00000000E+00
           tolwfr8     0.00000000E+00
           tolwfr9     0.00000000E+00
           tolwfr10    0.00000000E+00
            typat      1  2
              wtk1       0.01172    0.01172    0.01172    0.02344    0.01172    0.01172
                         0.02344    0.01172    0.02344    0.02344    0.01172    0.01172
                         0.02344    0.01172    0.02344    0.02344    0.01172    0.02344
                         0.02344    0.02344    0.01172    0.01172    0.01172    0.02344
                         0.01172    0.02344    0.02344    0.02344    0.01172    0.02344
                         0.02344    0.02344    0.02344    0.01172    0.01172    0.01172
                         0.01172    0.01172    0.02344    0.02344    0.01172    0.02344
                         0.02344    0.02344    0.02344    0.02344    0.01172    0.01172
                         0.01172    0.01172
              wtk2       0.00098    0.00098    0.00098    0.00098    0.00098    0.00098
                         0.00098    0.00098    0.00098    0.00098    0.00098    0.00098
                         0.00098    0.00098    0.00098    0.00098    0.00098    0.00098
                         0.00098    0.00098    0.00098    0.00098    0.00098    0.00098
                         0.00098    0.00098    0.00098    0.00098    0.00098    0.00098
                         0.00098    0.00098    0.00098    0.00098    0.00098    0.00098
                         0.00098    0.00098    0.00098    0.00098    0.00098    0.00098
                         0.00098    0.00098    0.00098    0.00098    0.00098    0.00098
                         0.00098    0.00098
              wtk3       0.00098    0.00098    0.00098    0.00098    0.00098    0.00098
                         0.00098    0.00098    0.00098    0.00098    0.00098    0.00098
                         0.00098    0.00098    0.00098    0.00098    0.00098    0.00098
                         0.00098    0.00098    0.00098    0.00098    0.00098    0.00098
                         0.00098    0.00098    0.00098    0.00098    0.00098    0.00098
                         0.00098    0.00098    0.00098    0.00098    0.00098    0.00098
                         0.00098    0.00098    0.00098    0.00098    0.00098    0.00098
                         0.00098    0.00098    0.00098    0.00098    0.00098    0.00098
                         0.00098    0.00098
              wtk4       0.00049    0.00049    0.00049    0.00049    0.00049    0.00049
                         0.00049    0.00049    0.00049    0.00049    0.00049    0.00049
                         0.00049    0.00049    0.00049    0.00049    0.00049    0.00049
                         0.00049    0.00049    0.00049    0.00049    0.00049    0.00049
                         0.00049    0.00049    0.00049    0.00049    0.00049    0.00049
                         0.00049    0.00049    0.00049    0.00049    0.00049    0.00049
                         0.00049    0.00049    0.00049    0.00049    0.00049    0.00049
                         0.00049    0.00049    0.00049    0.00049    0.00049    0.00049
                         0.00049    0.00049
              wtk5       0.00049    0.00049    0.00049    0.00049    0.00049    0.00049
                         0.00049    0.00049    0.00049    0.00049    0.00049    0.00049
                         0.00049    0.00049    0.00049    0.00049    0.00049    0.00049
                         0.00049    0.00049    0.00049    0.00049    0.00049    0.00049
                         0.00049    0.00049    0.00049    0.00049    0.00049    0.00049
                         0.00049    0.00049    0.00049    0.00049    0.00049    0.00049
                         0.00049    0.00049    0.00049    0.00049    0.00049    0.00049
                         0.00049    0.00049    0.00049    0.00049    0.00049    0.00049
                         0.00049    0.00049
              wtk6       0.00049    0.00049    0.00049    0.00049    0.00049    0.00049
                         0.00049    0.00049    0.00049    0.00049    0.00049    0.00049
                         0.00049    0.00049    0.00049    0.00049    0.00049    0.00049
                         0.00049    0.00049    0.00049    0.00049    0.00049    0.00049
                         0.00049    0.00049    0.00049    0.00049    0.00049    0.00049
                         0.00049    0.00049    0.00049    0.00049    0.00049    0.00049
                         0.00049    0.00049    0.00049    0.00049    0.00049    0.00049
                         0.00049    0.00049    0.00049    0.00049    0.00049    0.00049
                         0.00049    0.00049
              wtk7       0.00049    0.00049    0.00049    0.00049    0.00049    0.00049
                         0.00049    0.00049    0.00049    0.00049    0.00049    0.00049
                         0.00049    0.00049    0.00049    0.00049    0.00049    0.00049
                         0.00049    0.00049    0.00049    0.00049    0.00049    0.00049
                         0.00049    0.00049    0.00049    0.00049    0.00049    0.00049
                         0.00049    0.00049    0.00049    0.00049    0.00049    0.00049
                         0.00049    0.00049    0.00049    0.00049    0.00049    0.00049
                         0.00049    0.00049    0.00049    0.00049    0.00049    0.00049
                         0.00049    0.00049
              wtk8       0.00049    0.00049    0.00049    0.00049    0.00049    0.00049
                         0.00049    0.00049    0.00049    0.00049    0.00049    0.00049
                         0.00049    0.00049    0.00049    0.00049    0.00049    0.00049
                         0.00049    0.00049    0.00049    0.00049    0.00049    0.00049
                         0.00049    0.00049    0.00049    0.00049    0.00049    0.00049
                         0.00049    0.00049    0.00049    0.00049    0.00049    0.00049
                         0.00049    0.00049    0.00049    0.00049    0.00049    0.00049
                         0.00049    0.00049    0.00049    0.00049    0.00049    0.00049
                         0.00049    0.00049
              wtk9       0.00049    0.00049    0.00049    0.00049    0.00049    0.00049
                         0.00049    0.00049    0.00049    0.00049    0.00049    0.00049
                         0.00049    0.00049    0.00049    0.00049    0.00049    0.00049
                         0.00049    0.00049    0.00049    0.00049    0.00049    0.00049
                         0.00049    0.00049    0.00049    0.00049    0.00049    0.00049
                         0.00049    0.00049    0.00049    0.00049    0.00049    0.00049
                         0.00049    0.00049    0.00049    0.00049    0.00049    0.00049
                         0.00049    0.00049    0.00049    0.00049    0.00049    0.00049
                         0.00049    0.00049
              wtk10      0.00049    0.00049    0.00049    0.00049    0.00049    0.00049
                         0.00049    0.00049    0.00049    0.00049    0.00049    0.00049
                         0.00049    0.00049    0.00049    0.00049    0.00049    0.00049
                         0.00049    0.00049    0.00049    0.00049    0.00049    0.00049
                         0.00049    0.00049    0.00049    0.00049    0.00049    0.00049
                         0.00049    0.00049    0.00049    0.00049    0.00049    0.00049
                         0.00049    0.00049    0.00049    0.00049    0.00049    0.00049
                         0.00049    0.00049    0.00049    0.00049    0.00049    0.00049
                         0.00049    0.00049
                       outvars : Printing only first  50 k-points.
           xangst      0.0000000000E+00  0.0000000000E+00  0.0000000000E+00
                       1.5867016961E+00  1.5867016961E+00  1.5867016961E+00
            xcart      0.0000000000E+00  0.0000000000E+00  0.0000000000E+00
                       2.9984316602E+00  2.9984316603E+00  2.9984316602E+00
             xred      0.0000000000E+00  0.0000000000E+00  0.0000000000E+00
                       2.5000000000E-01  2.5000000000E-01  2.5000000000E-01
            znucl       49.00000   51.00000

================================================================================

 chkinp: Checking input parameters for consistency, jdtset=   1.

 chkinp: Checking input parameters for consistency, jdtset=   2.

 chkinp: Checking input parameters for consistency, jdtset=   3.

 chkinp: Checking input parameters for consistency, jdtset=   4.

 chkinp: Checking input parameters for consistency, jdtset=   5.

 chkinp: Checking input parameters for consistency, jdtset=   6.

 chkinp: Checking input parameters for consistency, jdtset=   7.

 chkinp: Checking input parameters for consistency, jdtset=   8.

 chkinp: Checking input parameters for consistency, jdtset=   9.

 chkinp: Checking input parameters for consistency, jdtset=  10.

================================================================================
== DATASET  1 ==================================================================
-   mpi_nproc: 4, omp_nthreads: 8 (-1 if OMP is not activated)


--- !DatasetInfo
iteration_state: {dtset: 1, }
dimensions: {natom: 2, nkpt: 60, mband: 4, nsppol: 1, nspinor: 1, nspden: 1, mpw: 2637, }
cutoff_energies: {ecut:  25.0, pawecutdg:  -1.0, }
electrons: {nelect:   8.00000000E+00, charge:   0.00000000E+00, occopt:   1.00000000E+00, tsmear:   1.00000000E-02, }
meta: {optdriver: 0, ionmov: 0, optcell: 0, iscf: 7, paral_kgb: 0, }
...

 Exchange-correlation functional for the present dataset will be:
  LDA: new Teter (4/93) with spin-polarized option - ixc=1
 Citation for XC functional:
  S. Goedecker, M. Teter, J. Huetter, PRB 54, 1703 (1996)

 Real(R)+Recip(G) space primitive vectors, cartesian coordinates (Bohr,Bohr^-1):
 R(1)=  0.0000000  5.9968633  5.9968633  G(1)= -0.0833769  0.0833769  0.0833769
 R(2)=  5.9968633  0.0000000  5.9968633  G(2)=  0.0833769 -0.0833769  0.0833769
 R(3)=  5.9968633  5.9968633  0.0000000  G(3)=  0.0833769  0.0833769 -0.0833769
 Unit cell volume ucvol=  4.3132283E+02 bohr^3
 Angles (23,13,12)=  6.00000000E+01  6.00000000E+01  6.00000000E+01 degrees

 getcut: wavevector=  0.0000  0.0000  0.0000  ngfft=  40  40  40
         ecut(hartree)=     25.000   => boxcut(ratio)=   2.09549

--- Pseudopotential description ------------------------------------------------
- pspini: atom type   1  psp file is /Users/lassi/Desktop/abinit_InSb/simulations/pseudos/49in.3.hgh
- pspatm: opening atomic psp file    /Users/lassi/Desktop/abinit_InSb/simulations/pseudos/49in.3.hgh
- Hartwigsen-Goedecker-Hutter psp for In,  from PRB58, 3641 (1998)
- 49.00000   3.00000     10605                znucl, zion, pspdat
    3    1    2    0      2001   0.00000      pspcod,pspxc,lmax,lloc,mmax,r2well
 rloc=   0.6100000
 cc1 =   2.8657770; cc2 =   0.0000000; cc3 =   0.0000000; cc4 =   0.0000000
 rrs =   0.7706020; h11s=   1.2561940; h22s=  -0.3972550; h33s=  -0.2783290
 rrp =   0.8581320; h11p=   0.4944590; h22p=  -0.3807890; h33p=   0.0000000
                    k11p=   0.0663670; k22p=  -0.0055630; k33p=   0.0000000
 rrd =   1.0886910; h11d=   0.1292080; h22d=   0.0000000; h33d=   0.0000000
                    k11d=   0.0044480; k22d=   0.0000000; k33d=   0.0000000
-  Local part computed in reciprocal space.

 pspatm : COMMENT -
  the projectors are not normalized,
  so that the KB energies are not consistent with 
  definition in PRB44, 8503 (1991). 
  However, this does not influence the results obtained hereafter.
  pspatm : epsatm=   17.25867767
         --- l  ekb(1:nproj) -->
             0   -0.872822   -0.248925    2.063593
             1   -1.350798    1.725815
             2    3.321137
 pspatm: atomic psp has been read  and splines computed

- pspini: atom type   2  psp file is /Users/lassi/Desktop/abinit_InSb/simulations/pseudos/51sb.5.hgh
- pspatm: opening atomic psp file    /Users/lassi/Desktop/abinit_InSb/simulations/pseudos/51sb.5.hgh
- Hartwigsen-Goedecker-Hutter psp for Sb,  from PRB58, 3641 (1998)
- 51.00000   5.00000     10605                znucl, zion, pspdat
    3    1    2    0      2001   0.00000      pspcod,pspxc,lmax,lloc,mmax,r2well
 rloc=   0.5900000
 cc1 =   6.6802280; cc2 =   0.0000000; cc3 =   0.0000000; cc4 =   0.0000000
 rrs =   0.5976840; h11s=   1.9514770; h22s=   0.0375370; h33s=  -0.7866310
 rrp =   0.6721220; h11p=   0.9703130; h22p=  -0.4667310; h33p=   0.0000000
                    k11p=   0.1392220; k22p=   0.0235130; k33p=   0.0000000
 rrd =   0.8565570; h11d=   0.3001030; h22d=   0.0000000; h33d=   0.0000000
                    k11d=   0.0094320; k22d=   0.0000000; k33d=   0.0000000
-  Local part computed in reciprocal space.

 pspatm : COMMENT -
  the projectors are not normalized,
  so that the KB energies are not consistent with 
  definition in PRB44, 8503 (1991). 
  However, this does not influence the results obtained hereafter.
  pspatm : epsatm=   32.54401099
         --- l  ekb(1:nproj) -->
             0   -0.778424    0.200340    1.488128
             1   -0.479727    0.969445
             2    1.439558
 pspatm: atomic psp has been read  and splines computed

   3.98421509E+02                                ecore*ucvol(ha*bohr**3)
--------------------------------------------------------------------------------

_setup2: Arith. and geom. avg. npw (full set) are    2575.391    2575.375

================================================================================

--- !BeginCycle
iteration_state: {dtset: 1, }
solver: {iscf: 7, nstep: 100, nline: 4, wfoptalg: 0, }
tolerances: {tolvrs: 1.00E-18, }
...

     iter   Etot(hartree)      deltaE(h)  residm     vres2
 ETOT  1  -7.6598284622675    -7.660E+00 5.773E-02 1.194E+02
 ETOT  2  -7.6832793670578    -2.345E-02 2.409E-04 4.765E+00
 ETOT  3  -7.6836297911099    -3.504E-04 5.027E-05 4.203E-01
 ETOT  4  -7.6836607752637    -3.098E-05 1.121E-05 6.076E-03
 ETOT  5  -7.6836612421304    -4.669E-07 1.277E-06 4.049E-05
 ETOT  6  -7.6836612644500    -2.232E-08 4.025E-07 3.219E-07
 ETOT  7  -7.6836612680952    -3.645E-09 4.683E-08 2.723E-08
 ETOT  8  -7.6836612687992    -7.040E-10 1.497E-08 5.085E-09
 ETOT  9  -7.6836612689371    -1.379E-10 1.765E-09 5.095E-10
 ETOT 10  -7.6836612689641    -2.696E-11 5.663E-10 2.079E-11
 ETOT 11  -7.6836612689695    -5.346E-12 6.722E-11 7.127E-12
 ETOT 12  -7.6836612689704    -9.743E-13 2.155E-11 6.435E-13
 ETOT 13  -7.6836612689706    -1.803E-13 2.567E-12 1.473E-13
 ETOT 14  -7.6836612689707    -7.994E-14 7.906E-13 2.038E-14
 ETOT 15  -7.6836612689708    -5.862E-14 7.310E-14 2.517E-15
 ETOT 16  -7.6836612689707     4.352E-14 1.892E-14 5.439E-16
 ETOT 17  -7.6836612689707    -1.510E-14 2.142E-15 2.142E-16
 ETOT 18  -7.6836612689708    -1.119E-13 6.778E-16 2.173E-18
 ETOT 19  -7.6836612689708     3.375E-14 8.117E-17 1.391E-17
 ETOT 20  -7.6836612689706     1.554E-13 2.594E-17 5.766E-20

 At SCF step   20       vres2   =  5.77E-20 < tolvrs=  1.00E-18 =>converged.

 Cartesian components of stress tensor (hartree/bohr^3)
  sigma(1 1)=  1.40513839E-07  sigma(3 2)=  0.00000000E+00
  sigma(2 2)=  1.40513839E-07  sigma(3 1)=  0.00000000E+00
  sigma(3 3)=  1.40513839E-07  sigma(2 1)=  0.00000000E+00


--- !ResultsGS
iteration_state: {dtset: 1, }
comment   : Summary of ground state results
lattice_vectors:
- [  0.0000000,   5.9968633,   5.9968633, ]
- [  5.9968633,   0.0000000,   5.9968633, ]
- [  5.9968633,   5.9968633,   0.0000000, ]
lattice_lengths: [   8.48085,    8.48085,    8.48085, ]
lattice_angles: [ 60.000,  60.000,  60.000, ] # degrees, (23, 13, 12)
lattice_volume:   4.3132283E+02
convergence: {deltae:  1.554E-13, res2:  5.766E-20, residm:  2.594E-17, diffor: null, }
etotal    :  -7.68366127E+00
entropy   :   0.00000000E+00
fermie    :   2.86969479E-02
cartesian_stress_tensor: # hartree/bohr^3
- [  1.40513839E-07,   0.00000000E+00,   0.00000000E+00, ]
- [  0.00000000E+00,   1.40513839E-07,   0.00000000E+00, ]
- [  0.00000000E+00,   0.00000000E+00,   1.40513839E-07, ]
pressure_GPa:  -4.1341E-03
xred      :
- [  0.0000E+00,   0.0000E+00,   0.0000E+00, In]
- [  2.5000E-01,   2.5000E-01,   2.5000E-01, Sb]
cartesian_forces: # hartree/bohr
- [ -0.00000000E+00,  -0.00000000E+00,  -0.00000000E+00, ]
- [ -0.00000000E+00,  -0.00000000E+00,  -0.00000000E+00, ]
force_length_stats: {min:   0.00000000E+00, max:   0.00000000E+00, mean:   0.00000000E+00, }
...

 Integrated electronic density in atomic spheres:
 ------------------------------------------------
 Atom  Sphere_radius  Integrated_density
    1        2.00000          0.67784251
    2        2.00000          1.55130222
================================================================================

 ----iterations are completed or convergence reached----

 Mean square residual over all n,k,spin=   19.366E-20; max=  25.937E-18
 reduced coordinates (array xred) for    2 atoms
       0.000000000000      0.000000000000      0.000000000000
       0.250000000000      0.250000000000      0.250000000000
 rms dE/dt=  0.0000E+00; max dE/dt=  0.0000E+00; dE/dt below (all hartree)
    1       0.000000000000      0.000000000000      0.000000000000
    2       0.000000000000      0.000000000000      0.000000000000

 cartesian coordinates (angstrom) at end:
    1      0.00000000000000     0.00000000000000     0.00000000000000
    2      1.58670169611897     1.58670169611897     1.58670169611897

 cartesian forces (hartree/bohr) at end:
    1     -0.00000000000000    -0.00000000000000    -0.00000000000000
    2     -0.00000000000000    -0.00000000000000    -0.00000000000000
 frms,max,avg= 0.0000000E+00 0.0000000E+00   0.000E+00  0.000E+00  0.000E+00 h/b

 cartesian forces (eV/Angstrom) at end:
    1     -0.00000000000000    -0.00000000000000    -0.00000000000000
    2     -0.00000000000000    -0.00000000000000    -0.00000000000000
 frms,max,avg= 0.0000000E+00 0.0000000E+00   0.000E+00  0.000E+00  0.000E+00 e/A
 length scales= 11.993726641000 11.993726641000 11.993726641000 bohr
              =  6.346806784476  6.346806784476  6.346806784476 angstroms
 prteigrs : about to open file Ph_3o_DS1_EIG
 Fermi (or HOMO) energy (hartree) =   0.02870   Average Vxc (hartree)=  -0.28592
 Eigenvalues (hartree) for nkpt=  60  k points:
 kpt#   1, nband=  4, wtk=  0.01172, kpt= -0.0625 -0.1250  0.0000 (reduced coord)
  -0.37107   -0.02914    0.01695    0.01944
 prteigrs : prtvol=0 or 1, do not print more k-points.


--- !EnergyTerms
iteration_state     : {dtset: 1, }
comment             : Components of total free energy in Hartree
kinetic             :  2.54521668429950E+00
hartree             :  6.20673645959777E-01
xc                  : -2.13554967077415E+00
Ewald energy        : -7.50156290062432E+00
psp_core            :  9.23719961726088E-01
local_psp           : -2.33645791826379E+00
non_local_psp       :  2.00298928706250E-01
total_energy        : -7.68366126897064E+00
total_energy_eV     : -2.09083056240175E+02
band_energy         : -1.13252631779425E+00
...


 Cartesian components of stress tensor (hartree/bohr^3)
  sigma(1 1)=  1.40513839E-07  sigma(3 2)=  0.00000000E+00
  sigma(2 2)=  1.40513839E-07  sigma(3 1)=  0.00000000E+00
  sigma(3 3)=  1.40513839E-07  sigma(2 1)=  0.00000000E+00

-Cartesian components of stress tensor (GPa)         [Pressure= -4.1341E-03 GPa]
- sigma(1 1)=  4.13405919E-03  sigma(3 2)=  0.00000000E+00
- sigma(2 2)=  4.13405919E-03  sigma(3 1)=  0.00000000E+00
- sigma(3 3)=  4.13405919E-03  sigma(2 1)=  0.00000000E+00

================================================================================
== DATASET  2 ==================================================================
-   mpi_nproc: 2, omp_nthreads: 8 (-1 if OMP is not activated)


--- !DatasetInfo
iteration_state: {dtset: 2, }
dimensions: {natom: 2, nkpt: 1024, mband: 4, nsppol: 1, nspinor: 1, nspden: 1, mpw: 2637, }
cutoff_energies: {ecut:  25.0, pawecutdg:  -1.0, }
electrons: {nelect:   8.00000000E+00, charge:   0.00000000E+00, occopt:   1.00000000E+00, tsmear:   1.00000000E-02, }
meta: {optdriver: 1, rfelfd: 2, }
...

 mkfilename : getwfk/=0, take file _WFK from output of DATASET   1.

 Exchange-correlation functional for the present dataset will be:
  LDA: new Teter (4/93) with spin-polarized option - ixc=1
 Citation for XC functional:
  S. Goedecker, M. Teter, J. Huetter, PRB 54, 1703 (1996)

 Real(R)+Recip(G) space primitive vectors, cartesian coordinates (Bohr,Bohr^-1):
 R(1)=  0.0000000  5.9968633  5.9968633  G(1)= -0.0833769  0.0833769  0.0833769
 R(2)=  5.9968633  0.0000000  5.9968633  G(2)=  0.0833769 -0.0833769  0.0833769
 R(3)=  5.9968633  5.9968633  0.0000000  G(3)=  0.0833769  0.0833769 -0.0833769
 Unit cell volume ucvol=  4.3132283E+02 bohr^3
 Angles (23,13,12)=  6.00000000E+01  6.00000000E+01  6.00000000E+01 degrees
 setup1 : take into account q-point for computing boxcut.

 getcut: wavevector=  0.0000  0.0000  0.0000  ngfft=  40  40  40
         ecut(hartree)=     25.000   => boxcut(ratio)=   2.09549
--------------------------------------------------------------------------------

-inwffil : will read wavefunctions from disk file Ph_3o_DS1_WFK

 ==>  initialize data related to q vector <== 

 The list of irreducible perturbations for this q vector is:
    1)    idir= 1    ipert=   3
    2)    idir= 2    ipert=   3
    3)    idir= 3    ipert=   3

================================================================================

--------------------------------------------------------------------------------
 Perturbation wavevector (in red.coord.)   0.000000  0.000000  0.000000
 Perturbation : derivative vs k along direction   1
 The set of symmetries contains only one element for this perturbation.
 symkpt : not enough symmetry to change the number of k points.

--------------------------------------------------------------------------------

-inwffil : will read wavefunctions from disk file Ph_3o_DS1_WFK
--------------------------------------------------------------------------------

 Initialisation of the first-order wave-functions :
  ireadwf=   0

--- !BeginCycle
iteration_state: {dtset: 2, }
solver: {iscf: -3, nstep: 100, nline: 4, wfoptalg: 0, }
tolerances: {tolwfr: 1.00E-22, }
...

     iter   2DEtotal(Ha)        deltaE(Ha) residm    vres2
-ETOT  1  -7.6986270995850     -7.699E+00 3.916E-01 0.000E+00
 ETOT  2  -7.7653130678447     -6.669E-02 2.363E-01 0.000E+00
 ETOT  3  -7.7684980048675     -3.185E-03 1.001E-02 0.000E+00
 ETOT  4  -7.7688649353641     -3.669E-04 5.336E-03 0.000E+00
 ETOT  5  -7.7689220979088     -5.716E-05 2.805E-04 0.000E+00
 ETOT  6  -7.7689318086063     -9.711E-06 1.648E-04 0.000E+00
 ETOT  7  -7.7689335026103     -1.694E-06 8.762E-06 0.000E+00
 ETOT  8  -7.7689338007946     -2.982E-07 5.325E-06 0.000E+00
 ETOT  9  -7.7689338535081     -5.271E-08 2.802E-07 0.000E+00
 ETOT 10  -7.7689338628470     -9.339E-09 1.736E-07 0.000E+00
 ETOT 11  -7.7689338645044     -1.657E-09 9.043E-09 0.000E+00
 ETOT 12  -7.7689338647989     -2.945E-10 5.664E-09 0.000E+00
 ETOT 13  -7.7689338648513     -5.238E-11 2.931E-10 0.000E+00
 ETOT 14  -7.7689338648606     -9.315E-12 1.847E-10 0.000E+00
 ETOT 15  -7.7689338648622     -1.672E-12 9.522E-12 0.000E+00
 ETOT 16  -7.7689338648625     -2.771E-13 6.023E-12 0.000E+00
 ETOT 17  -7.7689338648626     -6.395E-14 3.098E-13 0.000E+00
 ETOT 18  -7.7689338648626     -1.421E-14 1.963E-13 0.000E+00
 ETOT 19  -7.7689338648626      1.066E-14 1.008E-14 0.000E+00
 ETOT 20  -7.7689338648626     -6.217E-15 6.394E-15 0.000E+00
 ETOT 21  -7.7689338648626      8.882E-15 3.285E-16 0.000E+00
[...]
             nkpt8       2048
             nkpt9       2048
             nkpt10      2048
-           npkpt1          4
-           npkpt2          1
-           npkpt3          1
-           npkpt4          1
-           npkpt5          1
-           npkpt6          1
-           npkpt7          1
-           npkpt8          1
-           npkpt9          1
-           npkpt10         1
             nqpt1          0
             nqpt2          1
             nqpt3          1
             nqpt4          1
             nqpt5          1
             nqpt6          1
             nqpt7          1
             nqpt8          1
             nqpt9          1
             nqpt10         1
            nstep         100
             nsym          24
           ntypat           2
              occ1     2.000000  2.000000  2.000000  2.000000
              occ2     2.000000  2.000000  2.000000  2.000000
              occ3     2.000000  2.000000  2.000000  2.000000
              occ4     2.000000  2.000000  2.000000  2.000000
              occ5     2.000000  2.000000  2.000000  2.000000
              occ6     2.000000  2.000000  2.000000  2.000000
              occ7     2.000000  2.000000  2.000000  2.000000
              occ8     2.000000  2.000000  2.000000  2.000000
              occ9     2.000000  2.000000  2.000000  2.000000
              occ10    2.000000  2.000000  2.000000  2.000000
        optdriver1          0
        optdriver2          1
        optdriver3          1
        optdriver4          1
        optdriver5          1
        optdriver6          1
        optdriver7          1
        optdriver8          1
        optdriver9          1
        optdriver10         1
              qpt1     0.00000000E+00  0.00000000E+00  0.00000000E+00
              qpt2     0.00000000E+00  0.00000000E+00  0.00000000E+00
              qpt3     0.00000000E+00  0.00000000E+00  0.00000000E+00
              qpt4     2.50000000E-01  0.00000000E+00  0.00000000E+00
              qpt5     5.00000000E-01  0.00000000E+00  0.00000000E+00
              qpt6     2.50000000E-01  2.50000000E-01  0.00000000E+00
              qpt7     5.00000000E-01  2.50000000E-01  0.00000000E+00
              qpt8    -2.50000000E-01  2.50000000E-01  0.00000000E+00
              qpt9     5.00000000E-01  5.00000000E-01  0.00000000E+00
              qpt10   -2.50000000E-01  5.00000000E-01  2.50000000E-01
          rfatpol           1       2
            rfdir           1       1       1
           rfelfd1          0
           rfelfd2          2
           rfelfd3          3
           rfelfd4          0
           rfelfd5          0
           rfelfd6          0
           rfelfd7          0
           rfelfd8          0
           rfelfd9          0
           rfelfd10         0
           rfphon1          0
           rfphon2          0
           rfphon3          1
           rfphon4          1
           rfphon5          1
           rfphon6          1
           rfphon7          1
           rfphon8          1
           rfphon9          1
           rfphon10         1
            rprim      0.0000000000E+00  5.0000000000E-01  5.0000000000E-01
                       5.0000000000E-01  0.0000000000E+00  5.0000000000E-01
                       5.0000000000E-01  5.0000000000E-01  0.0000000000E+00
           shiftk      5.00000000E-01  5.00000000E-01  5.00000000E-01
          spgroup         216
           strten1     1.4051383944E-07  1.4051383944E-07  1.4051383944E-07
                       0.0000000000E+00  0.0000000000E+00  0.0000000000E+00
           strten3     0.0000000000E+00  0.0000000000E+00  0.0000000000E+00
                       0.0000000000E+00  0.0000000000E+00  0.0000000000E+00
           strten4     0.0000000000E+00  0.0000000000E+00  0.0000000000E+00
                       0.0000000000E+00  0.0000000000E+00  0.0000000000E+00
           strten5     0.0000000000E+00  0.0000000000E+00  0.0000000000E+00
                       0.0000000000E+00  0.0000000000E+00  0.0000000000E+00
           strten6     0.0000000000E+00  0.0000000000E+00  0.0000000000E+00
                       0.0000000000E+00  0.0000000000E+00  0.0000000000E+00
           strten7     0.0000000000E+00  0.0000000000E+00  0.0000000000E+00
                       0.0000000000E+00  0.0000000000E+00  0.0000000000E+00
           strten8     0.0000000000E+00  0.0000000000E+00  0.0000000000E+00
                       0.0000000000E+00  0.0000000000E+00  0.0000000000E+00
           strten9     0.0000000000E+00  0.0000000000E+00  0.0000000000E+00
                       0.0000000000E+00  0.0000000000E+00  0.0000000000E+00
           strten10    0.0000000000E+00  0.0000000000E+00  0.0000000000E+00
                       0.0000000000E+00  0.0000000000E+00  0.0000000000E+00
           symrel      1  0  0   0  1  0   0  0  1       0 -1  1   0 -1  0   1 -1  0
                      -1  0  0  -1  0  1  -1  1  0       0  1 -1   1  0 -1   0  0 -1
                      -1  0  0  -1  1  0  -1  0  1       0 -1  1   1 -1  0   0 -1  0
                       1  0  0   0  0  1   0  1  0       0  1 -1   0  0 -1   1  0 -1
                      -1  0  1  -1  1  0  -1  0  0       0 -1  0   1 -1  0   0 -1  1
                       1  0 -1   0  0 -1   0  1 -1       0  1  0   0  0  1   1  0  0
                       1  0 -1   0  1 -1   0  0 -1       0 -1  0   0 -1  1   1 -1  0
                      -1  0  1  -1  0  0  -1  1  0       0  1  0   1  0  0   0  0  1
                       0  0 -1   0  1 -1   1  0 -1       1 -1  0   0 -1  1   0 -1  0
                       0  0  1   1  0  0   0  1  0      -1  1  0  -1  0  0  -1  0  1
                       0  0  1   0  1  0   1  0  0       1 -1  0   0 -1  0   0 -1  1
                       0  0 -1   1  0 -1   0  1 -1      -1  1  0  -1  0  1  -1  0  0
           tolvrs1     1.00000000E-18
           tolvrs2     0.00000000E+00
           tolvrs3     1.00000000E-12
           tolvrs4     1.00000000E-12
           tolvrs5     1.00000000E-12
           tolvrs6     1.00000000E-12
           tolvrs7     1.00000000E-12
           tolvrs8     1.00000000E-12
           tolvrs9     1.00000000E-12
           tolvrs10    1.00000000E-12
           tolwfr1     0.00000000E+00
           tolwfr2     1.00000000E-22
           tolwfr3     0.00000000E+00
           tolwfr4     0.00000000E+00
           tolwfr5     0.00000000E+00
           tolwfr6     0.00000000E+00
           tolwfr7     0.00000000E+00
           tolwfr8     0.00000000E+00
           tolwfr9     0.00000000E+00
           tolwfr10    0.00000000E+00
            typat      1  2
              wtk1       0.01172    0.01172    0.01172    0.02344    0.01172    0.01172
                         0.02344    0.01172    0.02344    0.02344    0.01172    0.01172
                         0.02344    0.01172    0.02344    0.02344    0.01172    0.02344
                         0.02344    0.02344    0.01172    0.01172    0.01172    0.02344
                         0.01172    0.02344    0.02344    0.02344    0.01172    0.02344
                         0.02344    0.02344    0.02344    0.01172    0.01172    0.01172
                         0.01172    0.01172    0.02344    0.02344    0.01172    0.02344
                         0.02344    0.02344    0.02344    0.02344    0.01172    0.01172
                         0.01172    0.01172
              wtk2       0.00098    0.00098    0.00098    0.00098    0.00098    0.00098
                         0.00098    0.00098    0.00098    0.00098    0.00098    0.00098
                         0.00098    0.00098    0.00098    0.00098    0.00098    0.00098
                         0.00098    0.00098    0.00098    0.00098    0.00098    0.00098
                         0.00098    0.00098    0.00098    0.00098    0.00098    0.00098
                         0.00098    0.00098    0.00098    0.00098    0.00098    0.00098
                         0.00098    0.00098    0.00098    0.00098    0.00098    0.00098
                         0.00098    0.00098    0.00098    0.00098    0.00098    0.00098
                         0.00098    0.00098
              wtk3       0.00098    0.00098    0.00098    0.00098    0.00098    0.00098
                         0.00098    0.00098    0.00098    0.00098    0.00098    0.00098
                         0.00098    0.00098    0.00098    0.00098    0.00098    0.00098
                         0.00098    0.00098    0.00098    0.00098    0.00098    0.00098
                         0.00098    0.00098    0.00098    0.00098    0.00098    0.00098
                         0.00098    0.00098    0.00098    0.00098    0.00098    0.00098
                         0.00098    0.00098    0.00098    0.00098    0.00098    0.00098
                         0.00098    0.00098    0.00098    0.00098    0.00098    0.00098
                         0.00098    0.00098
              wtk4       0.00049    0.00049    0.00049    0.00049    0.00049    0.00049
                         0.00049    0.00049    0.00049    0.00049    0.00049    0.00049
                         0.00049    0.00049    0.00049    0.00049    0.00049    0.00049
                         0.00049    0.00049    0.00049    0.00049    0.00049    0.00049
                         0.00049    0.00049    0.00049    0.00049    0.00049    0.00049
                         0.00049    0.00049    0.00049    0.00049    0.00049    0.00049
                         0.00049    0.00049    0.00049    0.00049    0.00049    0.00049
                         0.00049    0.00049    0.00049    0.00049    0.00049    0.00049
                         0.00049    0.00049
              wtk5       0.00049    0.00049    0.00049    0.00049    0.00049    0.00049
                         0.00049    0.00049    0.00049    0.00049    0.00049    0.00049
                         0.00049    0.00049    0.00049    0.00049    0.00049    0.00049
                         0.00049    0.00049    0.00049    0.00049    0.00049    0.00049
                         0.00049    0.00049    0.00049    0.00049    0.00049    0.00049
                         0.00049    0.00049    0.00049    0.00049    0.00049    0.00049
                         0.00049    0.00049    0.00049    0.00049    0.00049    0.00049
                         0.00049    0.00049    0.00049    0.00049    0.00049    0.00049
                         0.00049    0.00049
              wtk6       0.00049    0.00049    0.00049    0.00049    0.00049    0.00049
                         0.00049    0.00049    0.00049    0.00049    0.00049    0.00049
                         0.00049    0.00049    0.00049    0.00049    0.00049    0.00049
                         0.00049    0.00049    0.00049    0.00049    0.00049    0.00049
                         0.00049    0.00049    0.00049    0.00049    0.00049    0.00049
                         0.00049    0.00049    0.00049    0.00049    0.00049    0.00049
                         0.00049    0.00049    0.00049    0.00049    0.00049    0.00049
                         0.00049    0.00049    0.00049    0.00049    0.00049    0.00049
                         0.00049    0.00049
              wtk7       0.00049    0.00049    0.00049    0.00049    0.00049    0.00049
                         0.00049    0.00049    0.00049    0.00049    0.00049    0.00049
                         0.00049    0.00049    0.00049    0.00049    0.00049    0.00049
                         0.00049    0.00049    0.00049    0.00049    0.00049    0.00049
                         0.00049    0.00049    0.00049    0.00049    0.00049    0.00049
                         0.00049    0.00049    0.00049    0.00049    0.00049    0.00049
                         0.00049    0.00049    0.00049    0.00049    0.00049    0.00049
                         0.00049    0.00049    0.00049    0.00049    0.00049    0.00049
                         0.00049    0.00049
              wtk8       0.00049    0.00049    0.00049    0.00049    0.00049    0.00049
                         0.00049    0.00049    0.00049    0.00049    0.00049    0.00049
                         0.00049    0.00049    0.00049    0.00049    0.00049    0.00049
                         0.00049    0.00049    0.00049    0.00049    0.00049    0.00049
                         0.00049    0.00049    0.00049    0.00049    0.00049    0.00049
                         0.00049    0.00049    0.00049    0.00049    0.00049    0.00049
                         0.00049    0.00049    0.00049    0.00049    0.00049    0.00049
                         0.00049    0.00049    0.00049    0.00049    0.00049    0.00049
                         0.00049    0.00049
              wtk9       0.00049    0.00049    0.00049    0.00049    0.00049    0.00049
                         0.00049    0.00049    0.00049    0.00049    0.00049    0.00049
                         0.00049    0.00049    0.00049    0.00049    0.00049    0.00049
                         0.00049    0.00049    0.00049    0.00049    0.00049    0.00049
                         0.00049    0.00049    0.00049    0.00049    0.00049    0.00049
                         0.00049    0.00049    0.00049    0.00049    0.00049    0.00049
                         0.00049    0.00049    0.00049    0.00049    0.00049    0.00049
                         0.00049    0.00049    0.00049    0.00049    0.00049    0.00049
                         0.00049    0.00049
              wtk10      0.00049    0.00049    0.00049    0.00049    0.00049    0.00049
                         0.00049    0.00049    0.00049    0.00049    0.00049    0.00049
                         0.00049    0.00049    0.00049    0.00049    0.00049    0.00049
                         0.00049    0.00049    0.00049    0.00049    0.00049    0.00049
                         0.00049    0.00049    0.00049    0.00049    0.00049    0.00049
                         0.00049    0.00049    0.00049    0.00049    0.00049    0.00049
                         0.00049    0.00049    0.00049    0.00049    0.00049    0.00049
                         0.00049    0.00049    0.00049    0.00049    0.00049    0.00049
                         0.00049    0.00049
                       outvars : Printing only first  50 k-points.
           xangst      0.0000000000E+00  0.0000000000E+00  0.0000000000E+00
                       1.5867016961E+00  1.5867016961E+00  1.5867016961E+00
            xcart      0.0000000000E+00  0.0000000000E+00  0.0000000000E+00
                       2.9984316602E+00  2.9984316603E+00  2.9984316602E+00
             xred      0.0000000000E+00  0.0000000000E+00  0.0000000000E+00
                       2.5000000000E-01  2.5000000000E-01  2.5000000000E-01
            znucl       49.00000   51.00000

================================================================================


- Timing analysis has been suppressed with timopt=0



================================================================================

 Suggested references for the acknowledgment of ABINIT usage.

 The users of ABINIT have little formal obligations with respect to the ABINIT group
 (those specified in the GNU General Public License, http://www.gnu.org/copyleft/gpl.txt).
 However, it is common practice in the scientific literature,
 to acknowledge the efforts of people that have made the research possible.
 In this spirit, please find below suggested citations of work written by ABINIT developers,
 corresponding to implementations inside of ABINIT that you have used in the present run.
 Note also that it will be of great value to readers of publications presenting these results,
 to read papers enabling them to understand the theoretical formalism and details
 of the ABINIT implementation.
 For information on why they are suggested, see also https://docs.abinit.org/theory/acknowledgments.
-
- [1] The Abinit project: Impact, environment and recent developments.
- Computer Phys. Comm. 248, 107042 (2020).
- X.Gonze, B. Amadon, G. Antonius, F.Arnardi, L.Baguet, J.-M.Beuken,
- J.Bieder, F.Bottin, J.Bouchet, E.Bousquet, N.Brouwer, F.Bruneval,
- G.Brunin, T.Cavignac, J.-B. Charraud, Wei Chen, M.Cote, S.Cottenier,
- J.Denier, G.Geneste, Ph.Ghosez, M.Giantomassi, Y.Gillet, O.Gingras,
- D.R.Hamann, G.Hautier, Xu He, N.Helbig, N.Holzwarth, Y.Jia, F.Jollet,
- W.Lafargue-Dit-Hauret, K.Lejaeghere, M.A.L.Marques, A.Martin, C.Martins,
- H.P.C. Miranda, F.Naccarato, K. Persson, G.Petretto, V.Planes, Y.Pouillon,
- S.Prokhorenko, F.Ricci, G.-M.Rignanese, A.H.Romero, M.M.Schmitt, M.Torrent,
- M.J.van Setten, B.Van Troeye, M.J.Verstraete, G.Zerah and J.W.Zwanzig
- Comment: the fifth generic paper describing the ABINIT project.
- Note that a version of this paper, that is not formatted for Computer Phys. Comm. 
- is available at https://www.abinit.org/sites/default/files/ABINIT20.pdf .
- The licence allows the authors to put it on the Web.
- DOI and bibtex: see https://docs.abinit.org/theory/bibliography/#gonze2020
-
- [2] First-principles responses of solids to atomic displacements and homogeneous electric fields:,
- implementation of a conjugate-gradient algorithm. X. Gonze, Phys. Rev. B55, 10337 (1997).
- Comment: Non-vanishing rfphon and/or rfelfd, in the norm-conserving case.
- DOI and bibtex: see https://docs.abinit.org/theory/bibliography/#gonze1997
-
- [3] Dynamical matrices, Born effective charges, dielectric permittivity tensors, and ,
- interatomic force constants from density-functional perturbation theory,
- X. Gonze and C. Lee, Phys. Rev. B55, 10355 (1997).
- Comment: Non-vanishing rfphon and/or rfelfd, in the norm-conserving case.
- DOI and bibtex: see https://docs.abinit.org/theory/bibliography/#gonze1997a
-
- [4] ABINIT: Overview, and focus on selected capabilities
- J. Chem. Phys. 152, 124102 (2020).
- A. Romero, D.C. Allan, B. Amadon, G. Antonius, T. Applencourt, L.Baguet,
- J.Bieder, F.Bottin, J.Bouchet, E.Bousquet, F.Bruneval,
- G.Brunin, D.Caliste, M.Cote,
- J.Denier, C. Dreyer, Ph.Ghosez, M.Giantomassi, Y.Gillet, O.Gingras,
- D.R.Hamann, G.Hautier, F.Jollet, G. Jomard,
- A.Martin, 
- H.P.C. Miranda, F.Naccarato, G.Petretto, N.A. Pike, V.Planes,
- S.Prokhorenko, T. Rangel, F.Ricci, G.-M.Rignanese, M.Royo, M.Stengel, M.Torrent,
- M.J.van Setten, B.Van Troeye, M.J.Verstraete, J.Wiktor, J.W.Zwanziger, and X.Gonze.
- Comment: a global overview of ABINIT, with focus on selected capabilities .
- Note that a version of this paper, that is not formatted for J. Chem. Phys 
- is available at https://www.abinit.org/sites/default/files/ABINIT20_JPC.pdf .
- The licence allows the authors to put it on the Web.
- DOI and bibtex: see https://docs.abinit.org/theory/bibliography/#romero2020
-
- [5] Recent developments in the ABINIT software package.
- Computer Phys. Comm. 205, 106 (2016).
- X.Gonze, F.Jollet, F.Abreu Araujo, D.Adams, B.Amadon, T.Applencourt,
- C.Audouze, J.-M.Beuken, J.Bieder, A.Bokhanchuk, E.Bousquet, F.Bruneval
- D.Caliste, M.Cote, F.Dahm, F.Da Pieve, M.Delaveau, M.Di Gennaro,
- B.Dorado, C.Espejo, G.Geneste, L.Genovese, A.Gerossier, M.Giantomassi,
- Y.Gillet, D.R.Hamann, L.He, G.Jomard, J.Laflamme Janssen, S.Le Roux,
- A.Levitt, A.Lherbier, F.Liu, I.Lukacevic, A.Martin, C.Martins,
- M.J.T.Oliveira, S.Ponce, Y.Pouillon, T.Rangel, G.-M.Rignanese,
- A.H.Romero, B.Rousseau, O.Rubel, A.A.Shukri, M.Stankovski, M.Torrent,
- M.J.Van Setten, B.Van Troeye, M.J.Verstraete, D.Waroquier, J.Wiktor,
- B.Xu, A.Zhou, J.W.Zwanziger.
- Comment: the fourth generic paper describing the ABINIT project.
- Note that a version of this paper, that is not formatted for Computer Phys. Comm. 
- is available at https://www.abinit.org/sites/default/files/ABINIT16.pdf .
- The licence allows the authors to put it on the Web.
- DOI and bibtex: see https://docs.abinit.org/theory/bibliography/#gonze2016
-
- Proc.   0 individual time (sec): cpu=      21257.5  wall=      18204.9

================================================================================

 Calculation completed.
.Delivered   1 WARNINGs and   2 COMMENTs to log file.
+Overall time at end (sec) : cpu=      42568.8  wall=      36444.8
