
.Version 9.2.2 of ABINIT 
.(MPI version, prepared for a arm_darwin20.2.0_gnu10.2 computer) 

.Copyright (C) 1998-2020 ABINIT group . 
 ABINIT comes with ABSOLUTELY NO WARRANTY.
 It is free software, and you are welcome to redistribute it
 under certain conditions (GNU General Public License,
 see ~abinit/COPYING or http://www.gnu.org/copyleft/gpl.txt).

 ABINIT is a project of the Universite Catholique de Louvain,
 Corning Inc. and other collaborators, see ~abinit/doc/developers/contributors.txt .
 Please read https://docs.abinit.org/theory/acknowledgments for suggested
 acknowledgments of the ABINIT effort.
 For more information, see https://www.abinit.org .

.Starting date : Sat  6 Mar 2021.
- ( at 23h02 )
  
- input  file    -> CNVG_1.abi
- output file    -> CNVG_1.abo
- root for input  files -> CNVG_1i
- root for output files -> CNVG_1o


 DATASET    1 : space group F-4 3 m (#216); Bravais cF (face-center cubic)
================================================================================
 Values of the parameters that define the memory need for DATASET  1.
     intxc =       0    ionmov =      22      iscf =       7    lmnmax =       6
     lnmax =       6     mgfft =      50  mpssoang =       3    mqgrid =    3001
     natom =       2  nloc_mem =       1    nspden =       1   nspinor =       1
    nsppol =       1      nsym =      24    n1xccc =    2501    ntypat =       2
    occopt =       1   xclevel =       1
-    mband =          15        mffmem =           1         mkmem =           2
       mpw =        5484          nfft =      125000          nkpt =          10
================================================================================
P This job should need less than                      40.094 Mbytes of memory.
  Rough estimation (10% accuracy) of disk space for files :
_ WF disk file :     12.554 Mbytes ; DEN or POT disk file :      0.956 Mbytes.
================================================================================


 DATASET    2 : space group F-4 3 m (#216); Bravais cF (face-center cubic)
================================================================================
 Values of the parameters that define the memory need for DATASET  2.
     intxc =       0    ionmov =      22      iscf =       7    lmnmax =       6
     lnmax =       6     mgfft =      50  mpssoang =       3    mqgrid =    3001
     natom =       2  nloc_mem =       1    nspden =       1   nspinor =       1
    nsppol =       1      nsym =      24    n1xccc =    2501    ntypat =       2
    occopt =       1   xclevel =       1
-    mband =          15        mffmem =           1         mkmem =           4
       mpw =        5513          nfft =      125000          nkpt =          28
================================================================================
P This job should need less than                      42.808 Mbytes of memory.
  Rough estimation (10% accuracy) of disk space for files :
_ WF disk file :     35.333 Mbytes ; DEN or POT disk file :      0.956 Mbytes.
================================================================================


 DATASET    3 : space group F-4 3 m (#216); Bravais cF (face-center cubic)
================================================================================
 Values of the parameters that define the memory need for DATASET  3.
     intxc =       0    ionmov =      22      iscf =       7    lmnmax =       6
     lnmax =       6     mgfft =      50  mpssoang =       3    mqgrid =    3001
     natom =       2  nloc_mem =       1    nspden =       1   nspinor =       1
    nsppol =       1      nsym =      24    n1xccc =    2501    ntypat =       2
    occopt =       1   xclevel =       1
-    mband =          15        mffmem =           1         mkmem =           8
       mpw =        5528          nfft =      125000          nkpt =          60
================================================================================
P This job should need less than                      48.215 Mbytes of memory.
  Rough estimation (10% accuracy) of disk space for files :
_ WF disk file :     75.918 Mbytes ; DEN or POT disk file :      0.956 Mbytes.
================================================================================

--------------------------------------------------------------------------------
------------- Echo of variables that govern the present computation ------------
--------------------------------------------------------------------------------
-
- outvars: echo of selected default values                                      
-   iomode0 =  0 , fftalg0 =312 , wfoptalg0 =  0
-
- outvars: echo of global parameters not present in the input file              
-  max_nthreads =    8
-
 -outvars: echo values of preprocessed input variables --------
            acell      1.2240000000E+01  1.2240000000E+01  1.2240000000E+01 Bohr
              amu      1.14820000E+02  1.21753000E+02
        autoparal           1
           diemac      1.60000000E+01
          dilatmx      1.05000000E+00
             ecut      3.60000000E+01 Hartree
           ecutsm      2.00000000E+00 Hartree
-          fftalg         312
           getwfk          -1
           ionmov          22
              ixc       -1012
           jdtset        1    2    3
              kpt1    -1.25000000E-01 -2.50000000E-01  0.00000000E+00
                      -1.25000000E-01  5.00000000E-01  0.00000000E+00
                      -2.50000000E-01 -3.75000000E-01  0.00000000E+00
                      -1.25000000E-01 -3.75000000E-01  1.25000000E-01
                      -1.25000000E-01  2.50000000E-01  0.00000000E+00
                      -2.50000000E-01  3.75000000E-01  0.00000000E+00
                      -3.75000000E-01  5.00000000E-01  0.00000000E+00
                      -2.50000000E-01  5.00000000E-01  1.25000000E-01
                      -1.25000000E-01  0.00000000E+00  0.00000000E+00
                      -3.75000000E-01  0.00000000E+00  0.00000000E+00
              kpt2    -8.33333333E-02 -1.66666667E-01  0.00000000E+00
                      -8.33333333E-02 -3.33333333E-01  0.00000000E+00
                      -1.66666667E-01 -2.50000000E-01  0.00000000E+00
                      -8.33333333E-02 -2.50000000E-01  8.33333333E-02
                      -8.33333333E-02  5.00000000E-01  0.00000000E+00
                      -1.66666667E-01 -4.16666667E-01  0.00000000E+00
                      -8.33333333E-02 -4.16666667E-01  8.33333333E-02
                      -2.50000000E-01 -3.33333333E-01  0.00000000E+00
                      -1.66666667E-01 -3.33333333E-01  8.33333333E-02
                      -8.33333333E-02 -3.33333333E-01  1.66666667E-01
                      -8.33333333E-02  3.33333333E-01  0.00000000E+00
                      -1.66666667E-01  4.16666667E-01  0.00000000E+00
                      -2.50000000E-01  5.00000000E-01  0.00000000E+00
                      -1.66666667E-01  5.00000000E-01  8.33333333E-02
                      -3.33333333E-01 -4.16666667E-01  0.00000000E+00
                      -2.50000000E-01 -4.16666667E-01  8.33333333E-02
                      -1.66666667E-01 -4.16666667E-01  1.66666667E-01
                      -8.33333333E-02 -4.16666667E-01  2.50000000E-01
                      -8.33333333E-02  1.66666667E-01  0.00000000E+00
                      -1.66666667E-01  2.50000000E-01  0.00000000E+00
                      -2.50000000E-01  3.33333333E-01  0.00000000E+00
                      -3.33333333E-01  4.16666667E-01  0.00000000E+00
                      -4.16666667E-01  5.00000000E-01  0.00000000E+00
                      -3.33333333E-01  5.00000000E-01  8.33333333E-02
                      -2.50000000E-01  5.00000000E-01  1.66666667E-01
                      -8.33333333E-02  0.00000000E+00  0.00000000E+00
                      -2.50000000E-01  0.00000000E+00  0.00000000E+00
                      -4.16666667E-01  0.00000000E+00  0.00000000E+00
              kpt3    -6.25000000E-02 -1.25000000E-01  0.00000000E+00
                      -6.25000000E-02 -2.50000000E-01  0.00000000E+00
                      -1.25000000E-01 -1.87500000E-01  0.00000000E+00
                      -6.25000000E-02 -1.87500000E-01  6.25000000E-02
                      -6.25000000E-02 -3.75000000E-01  0.00000000E+00
                      -1.25000000E-01 -3.12500000E-01  0.00000000E+00
                      -6.25000000E-02 -3.12500000E-01  6.25000000E-02
                      -1.87500000E-01 -2.50000000E-01  0.00000000E+00
                      -1.25000000E-01 -2.50000000E-01  6.25000000E-02
                      -6.25000000E-02 -2.50000000E-01  1.25000000E-01
                      -6.25000000E-02  5.00000000E-01  0.00000000E+00
                      -1.25000000E-01 -4.37500000E-01  0.00000000E+00
                      -6.25000000E-02 -4.37500000E-01  6.25000000E-02
                      -1.87500000E-01 -3.75000000E-01  0.00000000E+00
                      -1.25000000E-01 -3.75000000E-01  6.25000000E-02
                      -6.25000000E-02 -3.75000000E-01  1.25000000E-01
                      -2.50000000E-01 -3.12500000E-01  0.00000000E+00
                      -1.87500000E-01 -3.12500000E-01  6.25000000E-02
                      -1.25000000E-01 -3.12500000E-01  1.25000000E-01
                      -6.25000000E-02 -3.12500000E-01  1.87500000E-01
                      -6.25000000E-02  3.75000000E-01  0.00000000E+00
                      -1.25000000E-01  4.37500000E-01  0.00000000E+00
                      -1.87500000E-01  5.00000000E-01  0.00000000E+00
                      -1.25000000E-01  5.00000000E-01  6.25000000E-02
                      -2.50000000E-01 -4.37500000E-01  0.00000000E+00
                      -1.87500000E-01 -4.37500000E-01  6.25000000E-02
                      -1.25000000E-01 -4.37500000E-01  1.25000000E-01
                      -6.25000000E-02 -4.37500000E-01  1.87500000E-01
                      -3.12500000E-01 -3.75000000E-01  0.00000000E+00
                      -2.50000000E-01 -3.75000000E-01  6.25000000E-02
                      -1.87500000E-01 -3.75000000E-01  1.25000000E-01
                      -1.25000000E-01 -3.75000000E-01  1.87500000E-01
                      -6.25000000E-02 -3.75000000E-01  2.50000000E-01
                      -6.25000000E-02  2.50000000E-01  0.00000000E+00
                      -1.25000000E-01  3.12500000E-01  0.00000000E+00
                      -1.87500000E-01  3.75000000E-01  0.00000000E+00
                      -2.50000000E-01  4.37500000E-01  0.00000000E+00
                      -3.12500000E-01  5.00000000E-01  0.00000000E+00
                      -2.50000000E-01  5.00000000E-01  6.25000000E-02
                      -1.87500000E-01  5.00000000E-01  1.25000000E-01
                      -3.75000000E-01 -4.37500000E-01  0.00000000E+00
                      -3.12500000E-01 -4.37500000E-01  6.25000000E-02
                      -2.50000000E-01 -4.37500000E-01  1.25000000E-01
                      -1.87500000E-01 -4.37500000E-01  1.87500000E-01
                      -1.25000000E-01 -4.37500000E-01  2.50000000E-01
                      -6.25000000E-02 -4.37500000E-01  3.12500000E-01
                      -6.25000000E-02  1.25000000E-01  0.00000000E+00
                      -1.25000000E-01  1.87500000E-01  0.00000000E+00
                      -1.87500000E-01  2.50000000E-01  0.00000000E+00
                      -2.50000000E-01  3.12500000E-01  0.00000000E+00
                       outvar_i_n : Printing only first  50 k-points.
         kptrlatt1       4   -4    4     -4    4    4     -4   -4    4
         kptrlatt2       6   -6    6     -6    6    6     -6   -6    6
         kptrlatt3       8   -8    8     -8    8    8     -8   -8    8
          kptrlen1     4.89600000E+01
          kptrlen2     7.34400000E+01
          kptrlen3     9.79200000E+01
P           mkmem1          2
P           mkmem2          4
P           mkmem3          8
            natom           2
            nband1         15
            nband2         15
            nband3         15
           ndtset           3
            ngfft          50      50      50
             nkpt1         10
             nkpt2         28
             nkpt3         60
-           npkpt           8
            nstep         100
             nsym          24
            ntime         100
           ntypat           2
              occ1     2.000000  2.000000  2.000000  2.000000  2.000000  2.000000
                       2.000000  2.000000  2.000000  2.000000  2.000000  2.000000
                       2.000000  2.000000  0.000000
              occ2     2.000000  2.000000  2.000000  2.000000  2.000000  2.000000
                       2.000000  2.000000  2.000000  2.000000  2.000000  2.000000
                       2.000000  2.000000  0.000000
              occ3     2.000000  2.000000  2.000000  2.000000  2.000000  2.000000
                       2.000000  2.000000  2.000000  2.000000  2.000000  2.000000
                       2.000000  2.000000  0.000000
          optcell           1
            rprim      0.0000000000E+00  5.0000000000E-01  5.0000000000E-01
                       5.0000000000E-01  0.0000000000E+00  5.0000000000E-01
                       5.0000000000E-01  5.0000000000E-01  0.0000000000E+00
           shiftk      5.00000000E-01  5.00000000E-01  5.00000000E-01
          spgroup         216
           symrel      1  0  0   0  1  0   0  0  1       0 -1  1   0 -1  0   1 -1  0
                      -1  0  0  -1  0  1  -1  1  0       0  1 -1   1  0 -1   0  0 -1
                      -1  0  0  -1  1  0  -1  0  1       0 -1  1   1 -1  0   0 -1  0
                       1  0  0   0  0  1   0  1  0       0  1 -1   0  0 -1   1  0 -1
                      -1  0  1  -1  1  0  -1  0  0       0 -1  0   1 -1  0   0 -1  1
                       1  0 -1   0  0 -1   0  1 -1       0  1  0   0  0  1   1  0  0
                       1  0 -1   0  1 -1   0  0 -1       0 -1  0   0 -1  1   1 -1  0
                      -1  0  1  -1  0  0  -1  1  0       0  1  0   1  0  0   0  0  1
                       0  0 -1   0  1 -1   1  0 -1       1 -1  0   0 -1  1   0 -1  0
                       0  0  1   1  0  0   0  1  0      -1  1  0  -1  0  0  -1  0  1
                       0  0  1   0  1  0   1  0  0       1 -1  0   0 -1  0   0 -1  1
                       0  0 -1   1  0 -1   0  1 -1      -1  1  0  -1  0  1  -1  0  0
           tolmxf      5.00000000E-06
           tolvrs      1.00000000E-16
            typat      1  2
              wtk1       0.09375    0.09375    0.09375    0.18750    0.09375    0.09375
                         0.09375    0.18750    0.03125    0.03125
              wtk2       0.02778    0.02778    0.02778    0.05556    0.02778    0.02778
                         0.05556    0.02778    0.05556    0.05556    0.02778    0.02778
                         0.02778    0.05556    0.02778    0.05556    0.05556    0.05556
                         0.02778    0.02778    0.02778    0.02778    0.02778    0.05556
                         0.05556    0.00926    0.00926    0.00926
              wtk3       0.01172    0.01172    0.01172    0.02344    0.01172    0.01172
                         0.02344    0.01172    0.02344    0.02344    0.01172    0.01172
                         0.02344    0.01172    0.02344    0.02344    0.01172    0.02344
                         0.02344    0.02344    0.01172    0.01172    0.01172    0.02344
                         0.01172    0.02344    0.02344    0.02344    0.01172    0.02344
                         0.02344    0.02344    0.02344    0.01172    0.01172    0.01172
                         0.01172    0.01172    0.02344    0.02344    0.01172    0.02344
                         0.02344    0.02344    0.02344    0.02344    0.01172    0.01172
                         0.01172    0.01172
                       outvars : Printing only first  50 k-points.
           xangst      0.0000000000E+00  0.0000000000E+00  0.0000000000E+00
                       1.6192822583E+00  1.6192822583E+00  1.6192822583E+00
            xcart      0.0000000000E+00  0.0000000000E+00  0.0000000000E+00
                       3.0600000000E+00  3.0600000000E+00  3.0600000000E+00
             xred      0.0000000000E+00  0.0000000000E+00  0.0000000000E+00
                       2.5000000000E-01  2.5000000000E-01  2.5000000000E-01
            znucl       49.00000   51.00000

================================================================================

 chkinp: Checking input parameters for consistency, jdtset=   1.

 chkinp: Checking input parameters for consistency, jdtset=   2.

 chkinp: Checking input parameters for consistency, jdtset=   3.

================================================================================
== DATASET  1 ==================================================================
-   mpi_nproc: 8, omp_nthreads: 8 (-1 if OMP is not activated)
-    --> not optimal distribution: autoparal keyword recommended in input file <--


--- !DatasetInfo
iteration_state: {dtset: 1, }
dimensions: {natom: 2, nkpt: 10, mband: 15, nsppol: 1, nspinor: 1, nspden: 1, mpw: 5484, }
cutoff_energies: {ecut:  36.0, pawecutdg:  -1.0, }
electrons: {nelect:   2.80000000E+01, charge:   0.00000000E+00, occopt:   1.00000000E+00, tsmear:   1.00000000E-02, }
meta: {optdriver: 0, ionmov: 22, optcell: 1, iscf: 7, paral_kgb: 0, }
...

 Real(R)+Recip(G) space primitive vectors, cartesian coordinates (Bohr,Bohr^-1):
 R(1)=  0.0000000  6.1200000  6.1200000  G(1)= -0.0816993  0.0816993  0.0816993
 R(2)=  6.1200000  0.0000000  6.1200000  G(2)=  0.0816993 -0.0816993  0.0816993
 R(3)=  6.1200000  6.1200000  0.0000000  G(3)=  0.0816993  0.0816993 -0.0816993
 Unit cell volume ucvol=  4.5844186E+02 bohr^3
 Angles (23,13,12)=  6.00000000E+01  6.00000000E+01  6.00000000E+01 degrees

 getcut: wavevector=  0.0000  0.0000  0.0000  ngfft=  50  50  50
         ecut(hartree)=     39.690   => boxcut(ratio)=   2.03785

--- Pseudopotential description ------------------------------------------------
- pspini: atom type   1  psp file is /Users/lassi/Desktop/abinit_InSb/simulations/pseudos/In.psp8
- pspatm: opening atomic psp file    /Users/lassi/Desktop/abinit_InSb/simulations/pseudos/In.psp8
- In    ONCVPSP-3.3.0  r_core=   2.21158   2.37566   1.87143
- 49.00000  13.00000    171103                znucl, zion, pspdat
    8   -1012    2    4       600   0.00000   pspcod,pspxc,lmax,lloc,mmax,r2well
    5.99000000000000    5.00000000000000    0.00000000000000   rchrg,fchrg,qchrg
     nproj     2     2     2
     extension_switch     1
  pspatm : epsatm=   25.24256501
         --- l  ekb(1:nproj) -->
             0    8.133624    1.226031
             1    5.976255    1.015318
             2   -4.092403   -1.250253
 pspatm: atomic psp has been read  and splines computed

- pspini: atom type   2  psp file is /Users/lassi/Desktop/abinit_InSb/simulations/pseudos/Sb.psp8
- pspatm: opening atomic psp file    /Users/lassi/Desktop/abinit_InSb/simulations/pseudos/Sb.psp8
- Sb    ONCVPSP-3.3.0  r_core=   1.90855   2.12485   1.81962
- 51.00000  15.00000    171103                znucl, zion, pspdat
    8   -1012    2    4       600   0.00000   pspcod,pspxc,lmax,lloc,mmax,r2well
    5.99000000000000    5.00000000000000    0.00000000000000   rchrg,fchrg,qchrg
     nproj     2     2     2
     extension_switch     1
  pspatm : epsatm=   26.56042488
         --- l  ekb(1:nproj) -->
             0    7.790707    1.044356
             1    5.463367    0.704398
             2   -4.791489   -1.453703
 pspatm: atomic psp has been read  and splines computed

   1.45048372E+03                                ecore*ucvol(ha*bohr**3)
--------------------------------------------------------------------------------

_setup2: Arith. and geom. avg. npw (full set) are    5473.531    5473.526

================================================================================

=== [ionmov=22] Limited-memory Broyden-Fletcher-Goldfard-Shanno method      
================================================================================

--- Iteration: (  1/100) Internal Cycle: (1/1)
--------------------------------------------------------------------------------

---SELF-CONSISTENT-FIELD CONVERGENCE--------------------------------------------

--- !BeginCycle
iteration_state: {dtset: 1, itime: 1, icycle: 1, }
solver: {iscf: 7, nstep: 100, nline: 4, wfoptalg: 0, }
tolerances: {tolvrs: 1.00E-16, }
...

     iter   Etot(hartree)      deltaE(h)  residm     vres2
 ETOT  1  -154.73399399518    -1.547E+02 5.559E-01 2.064E+03
 ETOT  2  -156.66455478443    -1.931E+00 4.073E-02 2.850E+03
 ETOT  3  -156.94141360836    -2.769E-01 8.916E-03 4.807E+02
 ETOT  4  -156.97164211479    -3.023E-02 2.378E-03 2.031E+02
 ETOT  5  -156.99252000500    -2.088E-02 3.805E-04 8.246E+00
 ETOT  6  -156.99338487824    -8.649E-04 2.616E-04 9.617E-02
 ETOT  7  -156.99339511748    -1.024E-05 1.000E-05 3.798E-03
 ETOT  8  -156.99339551220    -3.947E-07 1.328E-05 7.805E-04
 ETOT  9  -156.99339553825    -2.605E-08 4.011E-07 4.856E-04
 ETOT 10  -156.99339559308    -5.483E-08 5.962E-07 3.454E-07
 ETOT 11  -156.99339559321    -1.324E-10 1.707E-08 4.484E-08
 ETOT 12  -156.99339559322    -8.441E-12 2.587E-08 6.044E-10
 ETOT 13  -156.99339559323    -3.070E-12 7.050E-10 5.094E-11
 ETOT 14  -156.99339559323     1.108E-12 1.075E-09 2.806E-11
 ETOT 15  -156.99339559322     5.969E-12 3.334E-11 1.758E-13
 ETOT 16  -156.99339559322    -5.201E-12 4.563E-11 2.243E-14
 ETOT 17  -156.99339559322     1.222E-12 1.852E-12 3.652E-14
 ETOT 18  -156.99339559323    -6.253E-12 1.942E-12 1.068E-15
 ETOT 19  -156.99339559323    -1.137E-12 1.019E-13 3.779E-16
 ETOT 20  -156.99339559323     2.473E-12 8.311E-14 6.115E-19

 At SCF step   20       vres2   =  6.11E-19 < tolvrs=  1.00E-16 =>converged.

 Cartesian components of stress tensor (hartree/bohr^3)
  sigma(1 1)=  2.19717565E-05  sigma(3 2)=  0.00000000E+00
  sigma(2 2)=  2.19717565E-05  sigma(3 1)=  0.00000000E+00
  sigma(3 3)=  2.19717565E-05  sigma(2 1)=  0.00000000E+00


--- !ResultsGS
iteration_state: {dtset: 1, itime: 1, icycle: 1, }
comment   : Summary of ground state results
lattice_vectors:
- [  0.0000000,   6.1200000,   6.1200000, ]
- [  6.1200000,   0.0000000,   6.1200000, ]
- [  6.1200000,   6.1200000,   0.0000000, ]
lattice_lengths: [   8.65499,    8.65499,    8.65499, ]
lattice_angles: [ 60.000,  60.000,  60.000, ] # degrees, (23, 13, 12)
lattice_volume:   4.5844186E+02
convergence: {deltae:  2.473E-12, res2:  6.115E-19, residm:  8.311E-14, diffor: null, }
etotal    :  -1.56993396E+02
entropy   :   0.00000000E+00
fermie    :   1.50646329E-01
cartesian_stress_tensor: # hartree/bohr^3
- [  2.19717565E-05,   0.00000000E+00,   0.00000000E+00, ]
- [  0.00000000E+00,   2.19717565E-05,   0.00000000E+00, ]
- [  0.00000000E+00,   0.00000000E+00,   2.19717565E-05, ]
pressure_GPa:  -6.4643E-01
xred      :
- [  0.0000E+00,   0.0000E+00,   0.0000E+00, In]
- [  2.5000E-01,   2.5000E-01,   2.5000E-01, Sb]
cartesian_forces: # hartree/bohr
- [ -0.00000000E+00,  -0.00000000E+00,  -0.00000000E+00, ]
- [ -0.00000000E+00,  -0.00000000E+00,  -0.00000000E+00, ]
force_length_stats: {min:   0.00000000E+00, max:   0.00000000E+00, mean:   0.00000000E+00, }
...

 Integrated electronic density in atomic spheres:
 ------------------------------------------------
 Atom  Sphere_radius  Integrated_density
    1        2.00000          9.91899985
    2        2.00000         11.23936960

---OUTPUT-----------------------------------------------------------------------

 Cartesian coordinates (xcart) [bohr]
  0.00000000000000E+00  0.00000000000000E+00  0.00000000000000E+00
  3.06000000000000E+00  3.06000000000000E+00  3.06000000000000E+00
 Reduced coordinates (xred)
  0.00000000000000E+00  0.00000000000000E+00  0.00000000000000E+00
  2.50000000000000E-01  2.50000000000000E-01  2.50000000000000E-01
 Cartesian forces (fcart) [Ha/bohr]; max,rms= 0.00000E+00 0.00000E+00 (free atoms)
 -0.00000000000000E+00 -0.00000000000000E+00 -0.00000000000000E+00
 -0.00000000000000E+00 -0.00000000000000E+00 -0.00000000000000E+00
 Reduced forces (fred)
  0.00000000000000E+00  0.00000000000000E+00  0.00000000000000E+00
  0.00000000000000E+00  0.00000000000000E+00  0.00000000000000E+00
 Scale of Primitive Cell (acell) [bohr]
  1.22400000000000E+01  1.22400000000000E+01  1.22400000000000E+01
 Real space primitive translations (rprimd) [bohr]
  0.00000000000000E+00  6.12000000000000E+00  6.12000000000000E+00
  6.12000000000000E+00  0.00000000000000E+00  6.12000000000000E+00
  6.12000000000000E+00  6.12000000000000E+00  0.00000000000000E+00
 Unitary Cell Volume (ucvol) [Bohr^3]=  4.58441856000000E+02
 Angles (23,13,12)= [degrees]
  6.00000000000000E+01  6.00000000000000E+01  6.00000000000000E+01
 Lengths [Bohr]
  8.65498700172334E+00  8.65498700172334E+00  8.65498700172334E+00
 Stress tensor in cartesian coordinates (strten) [Ha/bohr^3]
  2.19717565099736E-05  0.00000000000000E+00  0.00000000000000E+00
  0.00000000000000E+00  2.19717565099727E-05  0.00000000000000E+00
  0.00000000000000E+00  0.00000000000000E+00  2.19717565099727E-05
 Total energy (etotal) [Ha]= -1.56993395593228E+02

--- Iteration: (  2/100) Internal Cycle: (1/1)
--------------------------------------------------------------------------------

---SELF-CONSISTENT-FIELD CONVERGENCE--------------------------------------------

--- !BeginCycle
iteration_state: {dtset: 1, itime: 2, icycle: 1, }
solver: {iscf: 7, nstep: 100, nline: 4, wfoptalg: 0, }
tolerances: {tolvrs: 1.00E-16, }
...

     iter   Etot(hartree)      deltaE(h)  residm     vres2
 ETOT  1  -156.99331277521    -1.570E+02 2.534E-05 1.421E+00
 ETOT  2  -156.99340815699    -9.538E-05 7.171E-07 5.056E-02
 ETOT  3  -156.99341304441    -4.887E-06 1.390E-07 1.479E-02
 ETOT  4  -156.99341410241    -1.058E-06 1.232E-07 5.392E-04
 ETOT  5  -156.99341415709    -5.468E-08 1.852E-08 2.176E-05
 ETOT  6  -156.99341415849    -1.394E-09 3.266E-09 4.328E-07
 ETOT  7  -156.99341415855    -6.636E-11 1.200E-09 2.450E-08
 ETOT  8  -156.99341415856    -9.095E-13 1.624E-10 1.926E-09
 ETOT  9  -156.99341415855     1.137E-12 7.666E-11 3.959E-10
 ETOT 10  -156.99341415855     7.105E-13 1.099E-11 6.993E-11
 ETOT 11  -156.99341415856    -5.315E-12 4.639E-12 9.510E-13
 ETOT 12  -156.99341415856     2.757E-12 6.886E-13 2.689E-13
 ETOT 13  -156.99341415855     2.331E-12 2.803E-13 4.600E-15
 ETOT 14  -156.99341415856    -2.302E-12 4.268E-14 4.828E-17

 At SCF step   14       vres2   =  4.83E-17 < tolvrs=  1.00E-16 =>converged.

 Cartesian components of stress tensor (hartree/bohr^3)
  sigma(1 1)=  1.90340567E-05  sigma(3 2)=  0.00000000E+00
  sigma(2 2)=  1.90340567E-05  sigma(3 1)=  0.00000000E+00
  sigma(3 3)=  1.90340567E-05  sigma(2 1)=  0.00000000E+00


--- !ResultsGS
iteration_state: {dtset: 1, itime: 2, icycle: 1, }
comment   : Summary of ground state results
lattice_vectors:
- [  0.0000000,   6.1159660,   6.1159660, ]
- [  6.1159660,   0.0000000,   6.1159660, ]
- [  6.1159660,   6.1159660,   0.0000000, ]
lattice_lengths: [   8.64928,    8.64928,    8.64928, ]
lattice_angles: [ 60.000,  60.000,  60.000, ] # degrees, (23, 13, 12)
lattice_volume:   4.5753590E+02
convergence: {deltae: -2.302E-12, res2:  4.828E-17, residm:  4.268E-14, diffor: null, }
etotal    :  -1.56993414E+02
entropy   :   0.00000000E+00
fermie    :   1.51347846E-01
cartesian_stress_tensor: # hartree/bohr^3
- [  1.90340567E-05,   0.00000000E+00,   0.00000000E+00, ]
- [  0.00000000E+00,   1.90340567E-05,   0.00000000E+00, ]
- [  0.00000000E+00,   0.00000000E+00,   1.90340567E-05, ]
pressure_GPa:  -5.6000E-01
xred      :
- [  0.0000E+00,   0.0000E+00,   0.0000E+00, In]
- [  2.5000E-01,   2.5000E-01,   2.5000E-01, Sb]
cartesian_forces: # hartree/bohr
- [ -8.59892405E-32,   2.57967722E-31,  -8.59892405E-32, ]
- [  8.59892405E-32,  -2.57967722E-31,   8.59892405E-32, ]
force_length_stats: {min:   2.85194047E-31, max:   2.85194047E-31, mean:   2.85194047E-31, }
...

 Integrated electronic density in atomic spheres:
 ------------------------------------------------
 Atom  Sphere_radius  Integrated_density
    1        2.00000          9.91547575
    2        2.00000         11.24777615

---OUTPUT-----------------------------------------------------------------------

 Cartesian coordinates (xcart) [bohr]
  0.00000000000000E+00  0.00000000000000E+00  0.00000000000000E+00
  3.05798299275238E+00  3.05798299275238E+00  3.05798299275238E+00
 Reduced coordinates (xred)
  0.00000000000000E+00  0.00000000000000E+00  0.00000000000000E+00
  2.50000000000000E-01  2.50000000000000E-01  2.50000000000000E-01
 Cartesian forces (fcart) [Ha/bohr]; max,rms= 2.57968E-31 1.64657E-31 (free atoms)
 -8.59892405212480E-32  2.57967721563744E-31 -8.59892405212480E-32
  8.59892405212480E-32 -2.57967721563744E-31  8.59892405212480E-32
 Reduced forces (fred)
 -1.05181454029468E-30  1.05181454029468E-30 -1.05181454029468E-30
  1.05181454029468E-30 -1.05181454029468E-30  1.05181454029468E-30
 Scale of Primitive Cell (acell) [bohr]
  1.22319319710095E+01  1.22319319710095E+01  1.22319319710095E+01
 Real space primitive translations (rprimd) [bohr]
  0.00000000000000E+00  6.11596598550477E+00  6.11596598550477E+00
  6.11596598550477E+00  0.00000000000000E+00  6.11596598550477E+00
  6.11596598550477E+00  6.11596598550477E+00  0.00000000000000E+00
 Unitary Cell Volume (ucvol) [Bohr^3]=  4.57535903868228E+02
 Angles (23,13,12)= [degrees]
  6.00000000000000E+01  6.00000000000000E+01  6.00000000000000E+01
 Lengths [Bohr]
  8.64928204371338E+00  8.64928204371338E+00  8.64928204371338E+00
 Stress tensor in cartesian coordinates (strten) [Ha/bohr^3]
  1.90340566890131E-05  0.00000000000000E+00  0.00000000000000E+00
  0.00000000000000E+00  1.90340566890140E-05  0.00000000000000E+00
  0.00000000000000E+00  0.00000000000000E+00  1.90340566890157E-05
 Total energy (etotal) [Ha]= -1.56993414158556E+02

 Difference of energy with previous step (new-old):
           Absolute (Ha)=-1.85653E-05
           Relative     =-1.18255E-07

--- Iteration: (  3/100) Internal Cycle: (1/1)
--------------------------------------------------------------------------------

---SELF-CONSISTENT-FIELD CONVERGENCE--------------------------------------------

--- !BeginCycle
iteration_state: {dtset: 1, itime: 3, icycle: 1, }
solver: {iscf: 7, nstep: 100, nline: 4, wfoptalg: 0, }
tolerances: {tolvrs: 1.00E-16, }
...

     iter   Etot(hartree)      deltaE(h)  residm     vres2
 ETOT  1  -156.98946466709    -1.570E+02 3.526E-01 5.699E+01
 ETOT  2  -156.99323029185    -3.766E-03 2.883E-05 2.068E+00
 ETOT  3  -156.99342361663    -1.933E-04 5.457E-06 5.989E-01
 ETOT  4  -156.99346598416    -4.237E-05 5.879E-06 2.126E-02
 ETOT  5  -156.99346820717    -2.223E-06 5.540E-07 8.571E-04
 ETOT  6  -156.99346826271    -5.554E-08 1.305E-07 1.714E-05
 ETOT  7  -156.99346826518    -2.471E-09 2.452E-08 9.640E-07
 ETOT  8  -156.99346826533    -1.494E-10 4.826E-09 7.585E-08
 ETOT  9  -156.99346826534    -7.276E-12 1.046E-09 1.488E-08
 ETOT 10  -156.99346826534    -3.666E-12 2.036E-10 2.750E-09
 ETOT 11  -156.99346826534     2.842E-12 4.752E-11 2.987E-11
 ETOT 12  -156.99346826534    -1.307E-12 9.780E-12 9.588E-12
 ETOT 13  -156.99346826534    -1.762E-12 2.150E-12 3.322E-13
 ETOT 14  -156.99346826534     4.832E-13 4.695E-13 6.346E-15
 ETOT 15  -156.99346826534     3.865E-12 9.786E-14 1.567E-14
 ETOT 16  -156.99346826534    -6.196E-12 2.262E-14 2.276E-16
 ETOT 17  -156.99346826534     5.997E-12 4.486E-15 3.354E-18

 At SCF step   17       vres2   =  3.35E-18 < tolvrs=  1.00E-16 =>converged.

 Cartesian components of stress tensor (hartree/bohr^3)
  sigma(1 1)= -4.46925418E-07  sigma(3 2)=  0.00000000E+00
  sigma(2 2)= -4.46925418E-07  sigma(3 1)=  0.00000000E+00
  sigma(3 3)= -4.46925418E-07  sigma(2 1)=  0.00000000E+00


--- !ResultsGS
iteration_state: {dtset: 1, itime: 3, icycle: 1, }
comment   : Summary of ground state results
lattice_vectors:
- [  0.0000000,   6.0902101,   6.0902101, ]
- [  6.0902101,   0.0000000,   6.0902101, ]
- [  6.0902101,   6.0902101,   0.0000000, ]
lattice_lengths: [   8.61286,    8.61286,    8.61286, ]
lattice_angles: [ 60.000,  60.000,  60.000, ] # degrees, (23, 13, 12)
lattice_volume:   4.5177981E+02
convergence: {deltae:  5.997E-12, res2:  3.354E-18, residm:  4.486E-15, diffor: null, }
etotal    :  -1.56993468E+02
entropy   :   0.00000000E+00
fermie    :   1.55876267E-01
cartesian_stress_tensor: # hartree/bohr^3
- [ -4.46925418E-07,   0.00000000E+00,   0.00000000E+00, ]
- [  0.00000000E+00,  -4.46925418E-07,   0.00000000E+00, ]
- [  0.00000000E+00,   0.00000000E+00,  -4.46925418E-07, ]
pressure_GPa:   1.3149E-02
xred      :
- [  1.2512E-30,  -1.2512E-30,   1.2512E-30, In]
- [  2.5000E-01,   2.5000E-01,   2.5000E-01, Sb]
cartesian_forces: # hartree/bohr
- [  0.00000000E+00,   0.00000000E+00,   0.00000000E+00, ]
- [  0.00000000E+00,   0.00000000E+00,   0.00000000E+00, ]
force_length_stats: {min:   0.00000000E+00, max:   0.00000000E+00, mean:   0.00000000E+00, }
...

 Integrated electronic density in atomic spheres:
 ------------------------------------------------
 Atom  Sphere_radius  Integrated_density
    1        2.00000          9.89814331
    2        2.00000         11.28858571

---OUTPUT-----------------------------------------------------------------------

 Cartesian coordinates (xcart) [bohr]
  1.44957251717521E-45  1.52398643522762E-29  1.44957251717521E-45
  3.04510503726907E+00  3.04510503726907E+00  3.04510503726907E+00
 Reduced coordinates (xred)
  1.25117723081432E-30 -1.25117723081432E-30  1.25117723081432E-30
  2.50000000000000E-01  2.50000000000000E-01  2.50000000000000E-01
 Cartesian forces (fcart) [Ha/bohr]; max,rms= 0.00000E+00 0.00000E+00 (free atoms)
  0.00000000000000E+00  0.00000000000000E+00  0.00000000000000E+00
  0.00000000000000E+00  0.00000000000000E+00  0.00000000000000E+00
 Reduced forces (fred)
 -0.00000000000000E+00 -0.00000000000000E+00 -0.00000000000000E+00
 -0.00000000000000E+00 -0.00000000000000E+00 -0.00000000000000E+00
 Scale of Primitive Cell (acell) [bohr]
  1.21804201490763E+01  1.21804201490763E+01  1.21804201490763E+01
 Real space primitive translations (rprimd) [bohr]
  0.00000000000000E+00  6.09021007453813E+00  6.09021007453813E+00
  6.09021007453813E+00  0.00000000000000E+00  6.09021007453813E+00
  6.09021007453813E+00  6.09021007453813E+00  0.00000000000000E+00
 Unitary Cell Volume (ucvol) [Bohr^3]=  4.51779807205442E+02
 Angles (23,13,12)= [degrees]
  6.00000000000000E+01  6.00000000000000E+01  6.00000000000000E+01
 Lengths [Bohr]
  8.61285768511308E+00  8.61285768511308E+00  8.61285768511308E+00
 Stress tensor in cartesian coordinates (strten) [Ha/bohr^3]
 -4.46925417864168E-07  0.00000000000000E+00  0.00000000000000E+00
  0.00000000000000E+00 -4.46925417865902E-07  0.00000000000000E+00
  0.00000000000000E+00  0.00000000000000E+00 -4.46925417865035E-07
 Total energy (etotal) [Ha]= -1.56993468265337E+02

 Difference of energy with previous step (new-old):
           Absolute (Ha)=-5.41068E-05
           Relative     =-3.44644E-07

--- Iteration: (  4/100) Internal Cycle: (1/1)
--------------------------------------------------------------------------------

---SELF-CONSISTENT-FIELD CONVERGENCE--------------------------------------------

--- !BeginCycle
iteration_state: {dtset: 1, itime: 4, icycle: 1, }
solver: {iscf: 7, nstep: 100, nline: 4, wfoptalg: 0, }
tolerances: {tolvrs: 1.00E-16, }
...

     iter   Etot(hartree)      deltaE(h)  residm     vres2
 ETOT  1  -156.99346615637    -1.570E+02 2.532E-08 3.012E-02
 ETOT  2  -156.99346816799    -2.012E-06 1.671E-08 1.043E-03
 ETOT  3  -156.99346827068    -1.027E-07 3.418E-09 3.063E-04
 ETOT  4  -156.99346829281    -2.213E-08 3.391E-09 1.113E-05
 ETOT  5  -156.99346829392    -1.108E-09 3.823E-10 4.366E-07
 ETOT  6  -156.99346829395    -3.081E-11 8.238E-11 9.035E-09
 ETOT  7  -156.99346829395    -1.478E-12 2.455E-11 5.017E-10
 ETOT  8  -156.99346829395     3.979E-12 3.102E-12 3.980E-11
 ETOT  9  -156.99346829395    -2.359E-12 1.557E-12 9.081E-12
 ETOT 10  -156.99346829395     4.349E-12 2.064E-13 1.194E-12
 ETOT 11  -156.99346829395    -3.894E-12 9.328E-14 1.588E-14
 ETOT 12  -156.99346829395    -5.429E-12 1.274E-14 6.663E-15
 ETOT 13  -156.99346829395     1.620E-12 5.570E-15 2.324E-17

 At SCF step   13       vres2   =  2.32E-17 < tolvrs=  1.00E-16 =>converged.

 Cartesian components of stress tensor (hartree/bohr^3)
  sigma(1 1)=  6.98683456E-09  sigma(3 2)=  0.00000000E+00
  sigma(2 2)=  6.98683456E-09  sigma(3 1)=  0.00000000E+00
  sigma(3 3)=  6.98683456E-09  sigma(2 1)=  0.00000000E+00


--- !ResultsGS
iteration_state: {dtset: 1, itime: 4, icycle: 1, }
comment   : Summary of ground state results
lattice_vectors:
- [  0.0000000,   6.0907937,   6.0907937, ]
- [  6.0907937,   0.0000000,   6.0907937, ]
- [  6.0907937,   6.0907937,   0.0000000, ]
lattice_lengths: [   8.61368,    8.61368,    8.61368, ]
lattice_angles: [ 60.000,  60.000,  60.000, ] # degrees, (23, 13, 12)
lattice_volume:   4.5190970E+02
convergence: {deltae:  1.620E-12, res2:  2.324E-17, residm:  5.570E-15, diffor: null, }
etotal    :  -1.56993468E+02
entropy   :   0.00000000E+00
fermie    :   1.55772700E-01
cartesian_stress_tensor: # hartree/bohr^3
- [  6.98683456E-09,   0.00000000E+00,   0.00000000E+00, ]
- [  0.00000000E+00,   6.98683456E-09,   0.00000000E+00, ]
- [  0.00000000E+00,   0.00000000E+00,   6.98683456E-09, ]
pressure_GPa:  -2.0556E-04
xred      :
- [  1.2266E-30,  -1.2266E-30,   1.2266E-30, In]
- [  2.5000E-01,   2.5000E-01,   2.5000E-01, Sb]
cartesian_forces: # hartree/bohr
- [  5.18067723E-31,  -8.63446205E-31,  -1.72689241E-31, ]
- [ -5.18067723E-31,   8.63446205E-31,   1.72689241E-31, ]
force_length_stats: {min:   1.02164333E-30, max:   1.02164333E-30, mean:   1.02164333E-30, }
...

 Integrated electronic density in atomic spheres:
 ------------------------------------------------
 Atom  Sphere_radius  Integrated_density
    1        2.00000          9.89865778
    2        2.00000         11.28917633

---OUTPUT-----------------------------------------------------------------------

 Cartesian coordinates (xcart) [bohr]
  9.77256758676889E-46  1.49416708059825E-29  9.77256758676889E-46
  3.04539684589609E+00  3.04539684589609E+00  3.04539684589609E+00
 Reduced coordinates (xred)
  1.22657830506700E-30 -1.22657830506700E-30  1.22657830506700E-30
  2.50000000000000E-01  2.50000000000000E-01  2.50000000000000E-01
 Cartesian forces (fcart) [Ha/bohr]; max,rms= 8.63446E-31 5.89846E-31 (free atoms)
  5.18067723281492E-31 -8.63446205469154E-31 -1.72689241093831E-31
 -5.18067723281492E-31  8.63446205469154E-31  1.72689241093831E-31
 Reduced forces (fred)
  6.31088724176809E-30 -2.10362908058936E-30  2.10362908058936E-30
 -6.31088724176809E-30  2.10362908058936E-30 -2.10362908058936E-30
 Scale of Primitive Cell (acell) [bohr]
  1.21815873835843E+01  1.21815873835843E+01  1.21815873835843E+01
 Real space primitive translations (rprimd) [bohr]
  0.00000000000000E+00  6.09079369179217E+00  6.09079369179217E+00
  6.09079369179217E+00  0.00000000000000E+00  6.09079369179217E+00
  6.09079369179217E+00  6.09079369179217E+00  0.00000000000000E+00
 Unitary Cell Volume (ucvol) [Bohr^3]=  4.51909700142595E+02
 Angles (23,13,12)= [degrees]
  6.00000000000000E+01  6.00000000000000E+01  6.00000000000000E+01
 Lengths [Bohr]
  8.61368304454898E+00  8.61368304454898E+00  8.61368304454898E+00
 Stress tensor in cartesian coordinates (strten) [Ha/bohr^3]
  6.98683456142740E-09  0.00000000000000E+00  0.00000000000000E+00
  0.00000000000000E+00  6.98683456056004E-09  0.00000000000000E+00
  0.00000000000000E+00  0.00000000000000E+00  6.98683455969268E-09
 Total energy (etotal) [Ha]= -1.56993468293953E+02

 Difference of energy with previous step (new-old):
           Absolute (Ha)=-2.86156E-08
           Relative     =-1.82273E-10

 At Broyd/MD step   4, gradients are converged : 
  max grad (force/stress) = 6.9868E-07 < tolmxf= 5.0000E-06 ha/bohr (free atoms)

================================================================================

 ----iterations are completed or convergence reached----

 Mean square residual over all n,k,spin=   47.413E-18; max=  55.705E-16
 reduced coordinates (array xred) for    2 atoms
       0.000000000000     -0.000000000000      0.000000000000
       0.250000000000      0.250000000000      0.250000000000
 rms dE/dt=  6.6523E-30; max dE/dt=  8.4145E-30; dE/dt below (all hartree)
    1       0.000000000000     -0.000000000000      0.000000000000
    2      -0.000000000000     -0.000000000000      0.000000000000

 cartesian coordinates (angstrom) at end:
    1      0.00000000000000     0.00000000000000     0.00000000000000
    2      1.61155460196008     1.61155460196008     1.61155460196008

 cartesian forces (hartree/bohr) at end:
    1      0.00000000000000    -0.00000000000000    -0.00000000000000
    2     -0.00000000000000     0.00000000000000     0.00000000000000
 frms,max,avg= 5.8984605E-31 8.6344621E-31   0.000E+00  0.000E+00  0.000E+00 h/b

 cartesian forces (eV/Angstrom) at end:
    1      0.00000000000000    -0.00000000000000    -0.00000000000000
    2     -0.00000000000000     0.00000000000000     0.00000000000000
 frms,max,avg= 3.0331101E-29 4.4400185E-29   0.000E+00  0.000E+00  0.000E+00 e/A
 length scales= 12.181587383584 12.181587383584 12.181587383584 bohr
              =  6.446218407840  6.446218407840  6.446218407840 angstroms
 prteigrs : about to open file CNVG_1o_DS1_EIG
 Fermi (or HOMO) energy (hartree) =   0.15577   Average Vxc (hartree)=  -0.34921
 Eigenvalues (hartree) for nkpt=  10  k points:
 kpt#   1, nband= 15, wtk=  0.09375, kpt= -0.1250 -0.2500  0.0000 (reduced coord)
  -0.88622   -0.88618   -0.88618   -0.88554   -0.88552   -0.37412   -0.37247   -0.37242
  -0.36984   -0.36959   -0.21786    0.04066    0.12508    0.12673    0.22861
 prteigrs : prtvol=0 or 1, do not print more k-points.


--- !EnergyTerms
iteration_state     : {dtset: 1, itime: 4, icycle: 1, }
comment             : Components of total free energy in Hartree
kinetic             :  9.46548549436310E+01
hartree             :  4.38852780869328E+01
xc                  : -4.21254613488660E+01
Ewald energy        : -8.69833552385605E+01
psp_core            :  3.20967599597370E+00
local_psp           : -1.35598383479057E+02
non_local_psp       : -3.40360772540074E+01
total_energy        : -1.56993468293953E+02
total_energy_eV     : -4.27200952925950E+03
band_energy         : -1.26188762564683E+01
...


 Cartesian components of stress tensor (hartree/bohr^3)
  sigma(1 1)=  6.98683456E-09  sigma(3 2)=  0.00000000E+00
  sigma(2 2)=  6.98683456E-09  sigma(3 1)=  0.00000000E+00
  sigma(3 3)=  6.98683456E-09  sigma(2 1)=  0.00000000E+00

-Cartesian components of stress tensor (GPa)         [Pressure= -2.0556E-04 GPa]
- sigma(1 1)=  2.05559735E-04  sigma(3 2)=  0.00000000E+00
- sigma(2 2)=  2.05559735E-04  sigma(3 1)=  0.00000000E+00
- sigma(3 3)=  2.05559735E-04  sigma(2 1)=  0.00000000E+00

================================================================================
== DATASET  2 ==================================================================
-   mpi_nproc: 8, omp_nthreads: 8 (-1 if OMP is not activated)


--- !DatasetInfo
iteration_state: {dtset: 2, }
dimensions: {natom: 2, nkpt: 28, mband: 15, nsppol: 1, nspinor: 1, nspden: 1, mpw: 5513, }
cutoff_energies: {ecut:  36.0, pawecutdg:  -1.0, }
electrons: {nelect:   2.80000000E+01, charge:   0.00000000E+00, occopt:   1.00000000E+00, tsmear:   1.00000000E-02, }
meta: {optdriver: 0, ionmov: 22, optcell: 1, iscf: 7, paral_kgb: 0, }
...

 mkfilename : getwfk/=0, take file _WFK from output of DATASET   1.

 Real(R)+Recip(G) space primitive vectors, cartesian coordinates (Bohr,Bohr^-1):
 R(1)=  0.0000000  6.1200000  6.1200000  G(1)= -0.0816993  0.0816993  0.0816993
 R(2)=  6.1200000  0.0000000  6.1200000  G(2)=  0.0816993 -0.0816993  0.0816993
 R(3)=  6.1200000  6.1200000  0.0000000  G(3)=  0.0816993  0.0816993 -0.0816993
 Unit cell volume ucvol=  4.5844186E+02 bohr^3
 Angles (23,13,12)=  6.00000000E+01  6.00000000E+01  6.00000000E+01 degrees

 getcut: wavevector=  0.0000  0.0000  0.0000  ngfft=  50  50  50
         ecut(hartree)=     39.690   => boxcut(ratio)=   2.03785
--------------------------------------------------------------------------------

-inwffil : will read wavefunctions from disk file CNVG_1o_DS1_WFK
_setup2: Arith. and geom. avg. npw (full set) are    5474.556    5474.551

================================================================================

=== [ionmov=22] Limited-memory Broyden-Fletcher-Goldfard-Shanno method      
================================================================================

--- Iteration: (  1/100) Internal Cycle: (1/1)
--------------------------------------------------------------------------------

---SELF-CONSISTENT-FIELD CONVERGENCE--------------------------------------------

--- !BeginCycle
iteration_state: {dtset: 2, itime: 1, icycle: 1, }
solver: {iscf: 7, nstep: 100, nline: 4, wfoptalg: 0, }
tolerances: {tolvrs: 1.00E-16, }
...

     iter   Etot(hartree)      deltaE(h)  residm     vres2
 ETOT  1  -156.99124162415    -1.570E+02 4.371E-01 1.362E+01
 ETOT  2  -156.99315016192    -1.909E-03 8.656E-05 1.981E+00
 ETOT  3  -156.99356287375    -4.127E-04 1.739E-05 2.481E-02
 ETOT  4  -156.99356543130    -2.558E-06 9.633E-06 2.320E-03
 ETOT  5  -156.99356557533    -1.440E-07 1.378E-06 3.051E-05
 ETOT  6  -156.99356557970    -4.374E-09 8.723E-07 1.366E-06
 ETOT  7  -156.99356557995    -2.456E-10 1.316E-07 4.864E-08
 ETOT  8  -156.99356557996    -1.734E-11 8.540E-08 3.552E-09
 ETOT  9  -156.99356557996     1.421E-12 1.229E-08 1.292E-09
 ETOT 10  -156.99356557996     2.672E-12 8.249E-09 1.798E-11
 ETOT 11  -156.99356557996    -2.302E-12 1.143E-09 2.607E-12
 ETOT 12  -156.99356557996    -3.411E-13 7.924E-10 1.368E-12
 ETOT 13  -156.99356557996     1.421E-13 1.640E-10 9.590E-15
 ETOT 14  -156.99356557996     1.222E-12 1.035E-10 3.221E-14
 ETOT 15  -156.99356557996     8.527E-14 3.733E-11 1.512E-15
 ETOT 16  -156.99356557996    -1.592E-12 2.344E-11 8.493E-18

 At SCF step   16       vres2   =  8.49E-18 < tolvrs=  1.00E-16 =>converged.

 Cartesian components of stress tensor (hartree/bohr^3)
  sigma(1 1)=  2.16445240E-05  sigma(3 2)=  0.00000000E+00
  sigma(2 2)=  2.16445240E-05  sigma(3 1)=  0.00000000E+00
  sigma(3 3)=  2.16445240E-05  sigma(2 1)=  0.00000000E+00


--- !ResultsGS
iteration_state: {dtset: 2, itime: 1, icycle: 1, }
comment   : Summary of ground state results
lattice_vectors:
- [  0.0000000,   6.1200000,   6.1200000, ]
- [  6.1200000,   0.0000000,   6.1200000, ]
- [  6.1200000,   6.1200000,   0.0000000, ]
lattice_lengths: [   8.65499,    8.65499,    8.65499, ]
lattice_angles: [ 60.000,  60.000,  60.000, ] # degrees, (23, 13, 12)
lattice_volume:   4.5844186E+02
convergence: {deltae: -1.592E-12, res2:  8.493E-18, residm:  2.344E-11, diffor: null, }
etotal    :  -1.56993566E+02
entropy   :   0.00000000E+00
fermie    :   1.54553432E-01
cartesian_stress_tensor: # hartree/bohr^3
- [  2.16445240E-05,   0.00000000E+00,   0.00000000E+00, ]
- [  0.00000000E+00,   2.16445240E-05,   0.00000000E+00, ]
- [  0.00000000E+00,   0.00000000E+00,   2.16445240E-05, ]
pressure_GPa:  -6.3680E-01
xred      :
- [  0.0000E+00,   0.0000E+00,   0.0000E+00, In]
- [  2.5000E-01,   2.5000E-01,   2.5000E-01, Sb]
cartesian_forces: # hartree/bohr
- [ -1.33195469E-30,   6.44494204E-31,  -4.29662802E-32, ]
- [  1.33195469E-30,  -6.44494204E-31,   4.29662802E-32, ]
force_length_stats: {min:   1.48031151E-30, max:   1.48031151E-30, mean:   1.48031151E-30, }
...

 Integrated electronic density in atomic spheres:
 ------------------------------------------------
 Atom  Sphere_radius  Integrated_density
    1        2.00000          9.91931096
    2        2.00000         11.23929853

---OUTPUT-----------------------------------------------------------------------

 Cartesian coordinates (xcart) [bohr]
  0.00000000000000E+00  0.00000000000000E+00  0.00000000000000E+00
  3.06000000000000E+00  3.06000000000000E+00  3.06000000000000E+00
 Reduced coordinates (xred)
  0.00000000000000E+00  0.00000000000000E+00  0.00000000000000E+00
  2.50000000000000E-01  2.50000000000000E-01  2.50000000000000E-01
 Cartesian forces (fcart) [Ha/bohr]; max,rms= 1.33195E-30 8.54658E-31 (free atoms)
 -1.33195468746467E-30  6.44494203611938E-31 -4.29662802407958E-32
  1.33195468746467E-30 -6.44494203611938E-31  4.29662802407958E-32
 Reduced forces (fred)
 -3.68135089103139E-30  8.41451632235746E-30  4.20725816117873E-30
  3.68135089103139E-30 -8.41451632235746E-30 -4.20725816117873E-30
 Scale of Primitive Cell (acell) [bohr]
  1.22400000000000E+01  1.22400000000000E+01  1.22400000000000E+01
 Real space primitive translations (rprimd) [bohr]
  0.00000000000000E+00  6.12000000000000E+00  6.12000000000000E+00
  6.12000000000000E+00  0.00000000000000E+00  6.12000000000000E+00
  6.12000000000000E+00  6.12000000000000E+00  0.00000000000000E+00
 Unitary Cell Volume (ucvol) [Bohr^3]=  4.58441856000000E+02
 Angles (23,13,12)= [degrees]
  6.00000000000000E+01  6.00000000000000E+01  6.00000000000000E+01
 Lengths [Bohr]
  8.65498700172334E+00  8.65498700172334E+00  8.65498700172334E+00
 Stress tensor in cartesian coordinates (strten) [Ha/bohr^3]
  2.16445239520418E-05  0.00000000000000E+00  0.00000000000000E+00
  0.00000000000000E+00  2.16445239520401E-05  0.00000000000000E+00
  0.00000000000000E+00  0.00000000000000E+00  2.16445239520410E-05
 Total energy (etotal) [Ha]= -1.56993565579962E+02

--- Iteration: (  2/100) Internal Cycle: (1/1)
--------------------------------------------------------------------------------

---SELF-CONSISTENT-FIELD CONVERGENCE--------------------------------------------

--- !BeginCycle
iteration_state: {dtset: 2, itime: 2, icycle: 1, }
solver: {iscf: 7, nstep: 100, nline: 4, wfoptalg: 0, }
tolerances: {tolvrs: 1.00E-16, }
...

     iter   Etot(hartree)      deltaE(h)  residm     vres2
 ETOT  1  -156.99348506667    -1.570E+02 3.711E-03 1.380E+00
 ETOT  2  -156.99357776873    -9.270E-05 8.096E-07 4.905E-02
 ETOT  3  -156.99358251468    -4.746E-06 3.396E-07 1.433E-02
 ETOT  4  -156.99358353974    -1.025E-06 4.734E-07 5.243E-04
 ETOT  5  -156.99358359303    -5.329E-08 7.175E-08 2.116E-05
 ETOT  6  -156.99358359438    -1.354E-09 4.865E-08 4.175E-07
 ETOT  7  -156.99358359444    -6.068E-11 7.259E-09 2.341E-08
 ETOT  8  -156.99358359444    -2.672E-12 5.493E-09 1.861E-09
 ETOT  9  -156.99358359444    -2.842E-13 1.435E-09 4.069E-10
 ETOT 10  -156.99358359444    -1.705E-12 7.514E-10 7.347E-11
 ETOT 11  -156.99358359445    -8.811E-13 2.773E-10 1.028E-12
 ETOT 12  -156.99358359444     4.377E-12 1.530E-10 3.073E-13
 ETOT 13  -156.99358359445    -5.883E-12 5.340E-11 1.032E-15
 ETOT 14  -156.99358359445    -7.674E-13 3.060E-11 1.264E-16
 ETOT 15  -156.99358359444     3.837E-12 1.035E-11 3.014E-16
 ETOT 16  -156.99358359445    -1.847E-12 6.112E-12 8.224E-18

 At SCF step   16       vres2   =  8.22E-18 < tolvrs=  1.00E-16 =>converged.

 Cartesian components of stress tensor (hartree/bohr^3)
  sigma(1 1)=  1.87473441E-05  sigma(3 2)=  0.00000000E+00
  sigma(2 2)=  1.87473441E-05  sigma(3 1)=  0.00000000E+00
  sigma(3 3)=  1.87473441E-05  sigma(2 1)=  0.00000000E+00


--- !ResultsGS
iteration_state: {dtset: 2, itime: 2, icycle: 1, }
comment   : Summary of ground state results
lattice_vectors:
- [  0.0000000,   6.1160261,   6.1160261, ]
- [  6.1160261,   0.0000000,   6.1160261, ]
- [  6.1160261,   6.1160261,   0.0000000, ]
lattice_lengths: [   8.64937,    8.64937,    8.64937, ]
lattice_angles: [ 60.000,  60.000,  60.000, ] # degrees, (23, 13, 12)
lattice_volume:   4.5754939E+02
convergence: {deltae: -1.847E-12, res2:  8.224E-18, residm:  6.112E-12, diffor: null, }
etotal    :  -1.56993584E+02
entropy   :   0.00000000E+00
fermie    :   1.55258363E-01
cartesian_stress_tensor: # hartree/bohr^3
- [  1.87473441E-05,   0.00000000E+00,   0.00000000E+00, ]
- [  0.00000000E+00,   1.87473441E-05,   0.00000000E+00, ]
- [  0.00000000E+00,   0.00000000E+00,   1.87473441E-05, ]
pressure_GPa:  -5.5157E-01
xred      :
- [  7.3717E-32,  -1.6850E-31,  -8.4248E-32, In]
- [  2.5000E-01,   2.5000E-01,   2.5000E-01, Sb]
cartesian_forces: # hartree/bohr
- [  6.87907167E-31,   1.01004586E-47,  -6.87907167E-31, ]
- [ -6.87907167E-31,  -1.01004586E-47,   6.87907167E-31, ]
force_length_stats: {min:   9.72847645E-31, max:   9.72847645E-31, mean:   9.72847645E-31, }
...

 Integrated electronic density in atomic spheres:
 ------------------------------------------------
 Atom  Sphere_radius  Integrated_density
    1        2.00000          9.91583799
    2        2.00000         11.24776380

---OUTPUT-----------------------------------------------------------------------

 Cartesian coordinates (xcart) [bohr]
 -1.54578170521230E-30 -6.44075710505126E-32 -5.79668139454614E-31
  3.05801303270120E+00  3.05801303270120E+00  3.05801303270120E+00
 Reduced coordinates (xred)
  7.37166572758753E-32 -1.68495216630572E-31 -8.42476083152860E-32
  2.50000000000000E-01  2.50000000000000E-01  2.50000000000000E-01
 Cartesian forces (fcart) [Ha/bohr]; max,rms= 6.87907E-31 5.61674E-31 (free atoms)
  6.87907166547027E-31  1.01004586291380E-47 -6.87907166547027E-31
 -6.87907166547027E-31 -1.01004586291380E-47  6.87907166547027E-31
 Reduced forces (fred)
  4.20725816117873E-30  2.15403216058330E-46 -4.20725816117873E-30
 -4.20725816117873E-30 -2.15403216058330E-46  4.20725816117873E-30
 Scale of Primitive Cell (acell) [bohr]
  1.22320521308048E+01  1.22320521308048E+01  1.22320521308048E+01
 Real space primitive translations (rprimd) [bohr]
  0.00000000000000E+00  6.11602606540241E+00  6.11602606540241E+00
  6.11602606540241E+00  0.00000000000000E+00  6.11602606540241E+00
  6.11602606540241E+00  6.11602606540241E+00  0.00000000000000E+00
 Unitary Cell Volume (ucvol) [Bohr^3]=  4.57549387746508E+02
 Angles (23,13,12)= [degrees]
  6.00000000000000E+01  6.00000000000000E+01  6.00000000000000E+01
 Lengths [Bohr]
  8.64936700951944E+00  8.64936700951944E+00  8.64936700951944E+00
 Stress tensor in cartesian coordinates (strten) [Ha/bohr^3]
  1.87473441039185E-05  0.00000000000000E+00  0.00000000000000E+00
  0.00000000000000E+00  1.87473441039194E-05  0.00000000000000E+00
  0.00000000000000E+00  0.00000000000000E+00  1.87473441039176E-05
 Total energy (etotal) [Ha]= -1.56993583594446E+02

 Difference of energy with previous step (new-old):
           Absolute (Ha)=-1.80145E-05
           Relative     =-1.14747E-07

--- Iteration: (  3/100) Internal Cycle: (1/1)
--------------------------------------------------------------------------------

---SELF-CONSISTENT-FIELD CONVERGENCE--------------------------------------------

--- !BeginCycle
iteration_state: {dtset: 2, itime: 3, icycle: 1, }
solver: {iscf: 7, nstep: 100, nline: 4, wfoptalg: 0, }
tolerances: {tolvrs: 1.00E-16, }
...

     iter   Etot(hartree)      deltaE(h)  residm     vres2
 ETOT  1  -156.98975181035    -1.570E+02 2.648E-01 5.525E+01
 ETOT  2  -156.99340541198    -3.654E-03 4.053E-05 2.002E+00
 ETOT  3  -156.99359284150    -1.874E-04 1.296E-05 5.792E-01
 ETOT  4  -156.99363383409    -4.099E-05 1.733E-05 2.064E-02
 ETOT  5  -156.99363599512    -2.161E-06 2.784E-06 8.300E-04
 ETOT  6  -156.99363604874    -5.362E-08 1.758E-06 1.654E-05
 ETOT  7  -156.99363605113    -2.392E-09 2.299E-07 9.281E-07
 ETOT  8  -156.99363605127    -1.444E-10 1.816E-07 7.338E-08
 ETOT  9  -156.99363605128    -3.610E-12 2.194E-08 1.542E-08
 ETOT 10  -156.99363605128    -1.990E-13 1.978E-08 2.838E-09
 ETOT 11  -156.99363605128    -4.661E-12 2.586E-09 3.300E-11
 ETOT 12  -156.99363605128     3.638E-12 2.498E-09 1.055E-11
 ETOT 13  -156.99363605128    -1.194E-12 3.815E-10 1.448E-13
 ETOT 14  -156.99363605128    -6.537E-13 3.823E-10 1.691E-15
 ETOT 15  -156.99363605128    -1.847E-12 5.701E-11 1.213E-14
 ETOT 16  -156.99363605128    -5.684E-14 5.883E-11 3.548E-16
 ETOT 17  -156.99363605128     1.251E-12 8.593E-12 5.327E-17

 At SCF step   17       vres2   =  5.33E-17 < tolvrs=  1.00E-16 =>converged.

 Cartesian components of stress tensor (hartree/bohr^3)
  sigma(1 1)= -4.33794027E-07  sigma(3 2)=  0.00000000E+00
  sigma(2 2)= -4.33794027E-07  sigma(3 1)=  0.00000000E+00
  sigma(3 3)= -4.33794027E-07  sigma(2 1)=  0.00000000E+00


--- !ResultsGS
iteration_state: {dtset: 2, itime: 3, icycle: 1, }
comment   : Summary of ground state results
lattice_vectors:
- [  0.0000000,   6.0906805,   6.0906805, ]
- [  6.0906805,   0.0000000,   6.0906805, ]
- [  6.0906805,   6.0906805,   0.0000000, ]
lattice_lengths: [   8.61352,    8.61352,    8.61352, ]
lattice_angles: [ 60.000,  60.000,  60.000, ] # degrees, (23, 13, 12)
lattice_volume:   4.5188451E+02
convergence: {deltae:  1.251E-12, res2:  5.327E-17, residm:  8.593E-12, diffor: null, }
etotal    :  -1.56993636E+02
entropy   :   0.00000000E+00
fermie    :   1.59803628E-01
cartesian_stress_tensor: # hartree/bohr^3
- [ -4.33794027E-07,   0.00000000E+00,   0.00000000E+00, ]
- [  0.00000000E+00,  -4.33794027E-07,   0.00000000E+00, ]
- [  0.00000000E+00,   0.00000000E+00,  -4.33794027E-07, ]
pressure_GPa:   1.2763E-02
xred      :
- [ -8.2304E-30,   7.3938E-30,   8.6925E-30, In]
- [  2.5000E-01,   2.5000E-01,   2.5000E-01, Sb]
cartesian_forces: # hartree/bohr
- [  3.45384901E-31,   3.45384901E-31,  -1.03615470E-30, ]
- [ -3.45384901E-31,  -3.45384901E-31,   1.03615470E-30, ]
force_length_stats: {min:   1.14551212E-30, max:   1.14551212E-30, mean:   1.14551212E-30, }
...

 Integrated electronic density in atomic spheres:
 ------------------------------------------------
 Atom  Sphere_radius  Integrated_density
    1        2.00000          9.89885962
    2        2.00000         11.28897987

---OUTPUT-----------------------------------------------------------------------

 Cartesian coordinates (xcart) [bohr]
  9.79767487510861E-29  2.81459232289373E-30 -5.09520209559235E-30
  3.04534024894886E+00  3.04534024894886E+00  3.04534024894886E+00
 Reduced coordinates (xred)
 -8.23039055803286E-30  7.39383344469372E-30  8.69250514832622E-30
  2.50000000000000E-01  2.50000000000000E-01  2.50000000000000E-01
 Cartesian forces (fcart) [Ha/bohr]; max,rms= 1.03615E-30 6.61362E-31 (free atoms)
  3.45384900967217E-31  3.45384900967217E-31 -1.03615470290165E-30
 -3.45384900967217E-31 -3.45384900967217E-31  1.03615470290165E-30
 Reduced forces (fred)
  4.20725816117873E-30  4.20725816117873E-30 -4.20725816117873E-30
 -4.20725816117873E-30 -4.20725816117873E-30  4.20725816117873E-30
 Scale of Primitive Cell (acell) [bohr]
  1.21813609957955E+01  1.21813609957955E+01  1.21813609957955E+01
 Real space primitive translations (rprimd) [bohr]
  0.00000000000000E+00  6.09068049789773E+00  6.09068049789773E+00
  6.09068049789773E+00  0.00000000000000E+00  6.09068049789773E+00
  6.09068049789773E+00  6.09068049789773E+00  0.00000000000000E+00
 Unitary Cell Volume (ucvol) [Bohr^3]=  4.51884505165962E+02
 Angles (23,13,12)= [degrees]
  6.00000000000000E+01  6.00000000000000E+01  6.00000000000000E+01
 Lengths [Bohr]
  8.61352296420828E+00  8.61352296420828E+00  8.61352296420828E+00
 Stress tensor in cartesian coordinates (strten) [Ha/bohr^3]
 -4.33794026894786E-07  0.00000000000000E+00  0.00000000000000E+00
  0.00000000000000E+00 -4.33794026894786E-07  0.00000000000000E+00
  0.00000000000000E+00  0.00000000000000E+00 -4.33794026895654E-07
 Total energy (etotal) [Ha]= -1.56993636051282E+02

 Difference of energy with previous step (new-old):
           Absolute (Ha)=-5.24568E-05
           Relative     =-3.34134E-07

--- Iteration: (  4/100) Internal Cycle: (1/1)
--------------------------------------------------------------------------------

---SELF-CONSISTENT-FIELD CONVERGENCE--------------------------------------------

--- !BeginCycle
iteration_state: {dtset: 2, itime: 4, icycle: 1, }
solver: {iscf: 7, nstep: 100, nline: 4, wfoptalg: 0, }
tolerances: {tolvrs: 1.00E-16, }
...

     iter   Etot(hartree)      deltaE(h)  residm     vres2
 ETOT  1  -156.99363406627    -1.570E+02 5.880E-08 2.838E-02
 ETOT  2  -156.99363596263    -1.896E-06 1.567E-08 9.814E-04
 ETOT  3  -156.99363605935    -9.672E-08 7.105E-09 2.879E-04
 ETOT  4  -156.99363608016    -2.081E-08 1.041E-08 1.050E-05
 ETOT  5  -156.99363608121    -1.049E-09 1.107E-09 4.120E-07
 ETOT  6  -156.99363608123    -2.584E-11 8.344E-10 8.458E-09
 ETOT  7  -156.99363608123     9.663E-13 1.544E-10 4.651E-10
 ETOT  8  -156.99363608123    -8.527E-13 7.438E-11 3.717E-11
 ETOT  9  -156.99363608124    -2.984E-12 3.171E-11 8.919E-12
 ETOT 10  -156.99363608124     1.648E-12 1.520E-11 1.213E-12
 ETOT 11  -156.99363608124     3.979E-13 6.353E-12 1.609E-14
 ETOT 12  -156.99363608124    -6.537E-13 3.193E-12 7.379E-15
 ETOT 13  -156.99363608123     2.302E-12 1.268E-12 6.222E-18

 At SCF step   13       vres2   =  6.22E-18 < tolvrs=  1.00E-16 =>converged.

 Cartesian components of stress tensor (hartree/bohr^3)
  sigma(1 1)=  8.40682646E-09  sigma(3 2)=  0.00000000E+00
  sigma(2 2)=  8.40682646E-09  sigma(3 1)=  0.00000000E+00
  sigma(3 3)=  8.40682646E-09  sigma(2 1)=  0.00000000E+00


--- !ResultsGS
iteration_state: {dtset: 2, itime: 4, icycle: 1, }
comment   : Summary of ground state results
lattice_vectors:
- [  0.0000000,   6.0912468,   6.0912468, ]
- [  6.0912468,   0.0000000,   6.0912468, ]
- [  6.0912468,   6.0912468,   0.0000000, ]
lattice_lengths: [   8.61432,    8.61432,    8.61432, ]
lattice_angles: [ 60.000,  60.000,  60.000, ] # degrees, (23, 13, 12)
lattice_volume:   4.5201056E+02
convergence: {deltae:  2.302E-12, res2:  6.222E-18, residm:  1.268E-12, diffor: null, }
etotal    :  -1.56993636E+02
entropy   :   0.00000000E+00
fermie    :   1.59701140E-01
cartesian_stress_tensor: # hartree/bohr^3
- [  8.40682646E-09,   0.00000000E+00,   0.00000000E+00, ]
- [  0.00000000E+00,   8.40682646E-09,   0.00000000E+00, ]
- [  0.00000000E+00,   0.00000000E+00,   8.40682646E-09, ]
pressure_GPa:  -2.4734E-04
xred      :
- [ -8.7068E-30,   6.5777E-30,   9.1584E-30, In]
- [  2.5000E-01,   2.5000E-01,   2.5000E-01, Sb]
cartesian_forces: # hartree/bohr
- [  8.63381981E-31,   8.63381981E-31,  -2.59014594E-30, ]
- [ -8.63381981E-31,  -8.63381981E-31,   2.59014594E-30, ]
force_length_stats: {min:   2.86351408E-30, max:   2.86351408E-30, mean:   2.86351408E-30, }
...

 Integrated electronic density in atomic spheres:
 ------------------------------------------------
 Atom  Sphere_radius  Integrated_density
    1        2.00000          9.89935892
    2        2.00000         11.28955271

---OUTPUT-----------------------------------------------------------------------

 Cartesian coordinates (xcart) [bohr]
  9.58523584225393E-29  2.75053163256714E-30 -1.29690749870739E-29
  3.04562338313562E+00  3.04562338313562E+00  3.04562338313562E+00
 Reduced coordinates (xred)
 -8.70683013241124E-30  6.57769705264719E-30  9.15838491882993E-30
  2.50000000000000E-01  2.50000000000000E-01  2.50000000000000E-01
 Cartesian forces (fcart) [Ha/bohr]; max,rms= 2.59015E-30 1.65325E-30 (free atoms)
  8.63381981270929E-31  8.63381981270929E-31 -2.59014594381279E-30
 -8.63381981270929E-31 -8.63381981270929E-31  2.59014594381279E-30
 Reduced forces (fred)
  1.05181454029468E-29  1.05181454029468E-29 -1.05181454029468E-29
 -1.05181454029468E-29 -1.05181454029468E-29  1.05181454029468E-29
 Scale of Primitive Cell (acell) [bohr]
  1.21824935325425E+01  1.21824935325425E+01  1.21824935325425E+01
 Real space primitive translations (rprimd) [bohr]
  0.00000000000000E+00  6.09124676627125E+00  6.09124676627125E+00
  6.09124676627125E+00  0.00000000000000E+00  6.09124676627125E+00
  6.09124676627125E+00  6.09124676627125E+00  0.00000000000000E+00
 Unitary Cell Volume (ucvol) [Bohr^3]=  4.52010555955475E+02
 Angles (23,13,12)= [degrees]
  6.00000000000000E+01  6.00000000000000E+01  6.00000000000000E+01
 Lengths [Bohr]
  8.61432378862206E+00  8.61432378862206E+00  8.61432378862206E+00
 Stress tensor in cartesian coordinates (strten) [Ha/bohr^3]
  8.40682645893154E-09  0.00000000000000E+00  0.00000000000000E+00
  0.00000000000000E+00  8.40682645893154E-09  0.00000000000000E+00
  0.00000000000000E+00  0.00000000000000E+00  8.40682645893154E-09
 Total energy (etotal) [Ha]= -1.56993636081234E+02

 Difference of energy with previous step (new-old):
           Absolute (Ha)=-2.99518E-08
           Relative     =-1.90783E-10

 At Broyd/MD step   4, gradients are converged : 
  max grad (force/stress) = 8.4068E-07 < tolmxf= 5.0000E-06 ha/bohr (free atoms)

================================================================================

 ----iterations are completed or convergence reached----

 Mean square residual over all n,k,spin=   32.121E-16; max=  12.681E-13
 reduced coordinates (array xred) for    2 atoms
      -0.000000000000      0.000000000000      0.000000000000
       0.250000000000      0.250000000000      0.250000000000
 rms dE/dt=  1.2266E-29; max dE/dt=  1.6829E-29; dE/dt below (all hartree)
    1       0.000000000000      0.000000000000     -0.000000000000
    2      -0.000000000000     -0.000000000000      0.000000000000

 cartesian coordinates (angstrom) at end:
    1      0.00000000000000     0.00000000000000    -0.00000000000000
    2      1.61167448030414     1.61167448030414     1.61167448030414

 cartesian forces (hartree/bohr) at end:
    1      0.00000000000000     0.00000000000000    -0.00000000000000
    2     -0.00000000000000    -0.00000000000000     0.00000000000000
 frms,max,avg= 1.6532506E-30 2.5901459E-30   0.000E+00  0.000E+00  0.000E+00 h/b

 cartesian forces (eV/Angstrom) at end:
    1      0.00000000000000     0.00000000000000    -0.00000000000000
    2     -0.00000000000000    -0.00000000000000     0.00000000000000
 frms,max,avg= 8.5013558E-29 1.3319065E-28   0.000E+00  0.000E+00  0.000E+00 e/A
 length scales= 12.182493532542 12.182493532542 12.182493532542 bohr
              =  6.446697921217  6.446697921217  6.446697921217 angstroms
 prteigrs : about to open file CNVG_1o_DS2_EIG
 Fermi (or HOMO) energy (hartree) =   0.15970   Average Vxc (hartree)=  -0.34919
 Eigenvalues (hartree) for nkpt=  28  k points:
 kpt#   1, nband= 15, wtk=  0.02778, kpt= -0.0833 -0.1667  0.0000 (reduced coord)
  -0.88644   -0.88642   -0.88642   -0.88576   -0.88575   -0.37357   -0.37276   -0.37273
  -0.36977   -0.36965   -0.22826    0.07830    0.14233    0.14418    0.21554
 prteigrs : prtvol=0 or 1, do not print more k-points.


--- !EnergyTerms
iteration_state     : {dtset: 2, itime: 4, icycle: 1, }
comment             : Components of total free energy in Hartree
kinetic             :  9.46536320881337E+01
hartree             :  4.38875766309200E+01
xc                  : -4.21251997891041E+01
Ewald energy        : -8.69768853088607E+01
psp_core            :  3.20895983021741E+00
local_psp           : -1.35606320592143E+02
non_local_psp       : -3.40353989403970E+01
total_energy        : -1.56993636081234E+02
total_energy_eV     : -4.27201409498361E+03
band_energy         : -1.26224160788610E+01
...


 Cartesian components of stress tensor (hartree/bohr^3)
  sigma(1 1)=  8.40682646E-09  sigma(3 2)=  0.00000000E+00
  sigma(2 2)=  8.40682646E-09  sigma(3 1)=  0.00000000E+00
  sigma(3 3)=  8.40682646E-09  sigma(2 1)=  0.00000000E+00

-Cartesian components of stress tensor (GPa)         [Pressure= -2.4734E-04 GPa]
- sigma(1 1)=  2.47337332E-04  sigma(3 2)=  0.00000000E+00
- sigma(2 2)=  2.47337332E-04  sigma(3 1)=  0.00000000E+00
- sigma(3 3)=  2.47337332E-04  sigma(2 1)=  0.00000000E+00

================================================================================
== DATASET  3 ==================================================================
-   mpi_nproc: 8, omp_nthreads: 8 (-1 if OMP is not activated)


--- !DatasetInfo
iteration_state: {dtset: 3, }
dimensions: {natom: 2, nkpt: 60, mband: 15, nsppol: 1, nspinor: 1, nspden: 1, mpw: 5528, }
cutoff_energies: {ecut:  36.0, pawecutdg:  -1.0, }
electrons: {nelect:   2.80000000E+01, charge:   0.00000000E+00, occopt:   1.00000000E+00, tsmear:   1.00000000E-02, }
meta: {optdriver: 0, ionmov: 22, optcell: 1, iscf: 7, paral_kgb: 0, }
...

 mkfilename : getwfk/=0, take file _WFK from output of DATASET   2.

 Real(R)+Recip(G) space primitive vectors, cartesian coordinates (Bohr,Bohr^-1):
 R(1)=  0.0000000  6.1200000  6.1200000  G(1)= -0.0816993  0.0816993  0.0816993
 R(2)=  6.1200000  0.0000000  6.1200000  G(2)=  0.0816993 -0.0816993  0.0816993
 R(3)=  6.1200000  6.1200000  0.0000000  G(3)=  0.0816993  0.0816993 -0.0816993
 Unit cell volume ucvol=  4.5844186E+02 bohr^3
 Angles (23,13,12)=  6.00000000E+01  6.00000000E+01  6.00000000E+01 degrees

 getcut: wavevector=  0.0000  0.0000  0.0000  ngfft=  50  50  50
         ecut(hartree)=     39.690   => boxcut(ratio)=   2.03785
--------------------------------------------------------------------------------

-inwffil : will read wavefunctions from disk file CNVG_1o_DS2_WFK
_setup2: Arith. and geom. avg. npw (full set) are    5474.727    5474.722

================================================================================

=== [ionmov=22] Limited-memory Broyden-Fletcher-Goldfard-Shanno method      
================================================================================

--- Iteration: (  1/100) Internal Cycle: (1/1)
--------------------------------------------------------------------------------

---SELF-CONSISTENT-FIELD CONVERGENCE--------------------------------------------

--- !BeginCycle
iteration_state: {dtset: 3, itime: 1, icycle: 1, }
solver: {iscf: 7, nstep: 100, nline: 4, wfoptalg: 0, }
tolerances: {tolvrs: 1.00E-16, }
...

     iter   Etot(hartree)      deltaE(h)  residm     vres2
 ETOT  1  -156.99103129546    -1.570E+02 5.244E-04 1.648E+01
 ETOT  2  -156.99316846629    -2.137E-03 2.372E-05 1.850E+00
 ETOT  3  -156.99357727087    -4.088E-04 6.728E-06 5.041E-02
 ETOT  4  -156.99358173293    -4.462E-06 1.552E-06 4.128E-03
 ETOT  5  -156.99358199607    -2.631E-07 3.979E-07 6.442E-05
 ETOT  6  -156.99358200233    -6.254E-09 1.974E-07 1.867E-06
 ETOT  7  -156.99358200265    -3.282E-10 7.343E-08 6.480E-08
 ETOT  8  -156.99358200266    -9.095E-12 6.895E-08 1.934E-08
 ETOT  9  -156.99358200266     2.558E-13 2.763E-08 6.374E-10
 ETOT 10  -156.99358200267    -3.666E-12 2.601E-08 1.476E-11
 ETOT 11  -156.99358200266     3.922E-12 1.038E-08 2.907E-11
 ETOT 12  -156.99358200266    -6.253E-13 9.758E-09 9.005E-14
 ETOT 13  -156.99358200267    -2.217E-12 3.872E-09 5.028E-14
 ETOT 14  -156.99358200266     1.933E-12 3.647E-09 3.415E-15
 ETOT 15  -156.99358200266    -3.411E-13 1.440E-09 6.301E-17

 At SCF step   15       vres2   =  6.30E-17 < tolvrs=  1.00E-16 =>converged.

 Cartesian components of stress tensor (hartree/bohr^3)
  sigma(1 1)=  2.15386897E-05  sigma(3 2)=  0.00000000E+00
  sigma(2 2)=  2.15386897E-05  sigma(3 1)=  0.00000000E+00
  sigma(3 3)=  2.15386897E-05  sigma(2 1)=  0.00000000E+00


--- !ResultsGS
iteration_state: {dtset: 3, itime: 1, icycle: 1, }
comment   : Summary of ground state results
lattice_vectors:
- [  0.0000000,   6.1200000,   6.1200000, ]
- [  6.1200000,   0.0000000,   6.1200000, ]
- [  6.1200000,   6.1200000,   0.0000000, ]
lattice_lengths: [   8.65499,    8.65499,    8.65499, ]
lattice_angles: [ 60.000,  60.000,  60.000, ] # degrees, (23, 13, 12)
lattice_volume:   4.5844186E+02
convergence: {deltae: -3.411E-13, res2:  6.301E-17, residm:  1.440E-09, diffor: null, }
etotal    :  -1.56993582E+02
entropy   :   0.00000000E+00
fermie    :   1.56096758E-01
cartesian_stress_tensor: # hartree/bohr^3
- [  2.15386897E-05,   0.00000000E+00,   0.00000000E+00, ]
- [  0.00000000E+00,   2.15386897E-05,   0.00000000E+00, ]
- [  0.00000000E+00,   0.00000000E+00,   2.15386897E-05, ]
pressure_GPa:  -6.3369E-01
xred      :
- [  0.0000E+00,   0.0000E+00,   0.0000E+00, In]
- [  2.5000E-01,   2.5000E-01,   2.5000E-01, Sb]
cartesian_forces: # hartree/bohr
- [  1.71865121E-31,   1.71865121E-31,  -5.15595363E-31, ]
- [ -1.71865121E-31,  -1.71865121E-31,   5.15595363E-31, ]
force_length_stats: {min:   5.70012121E-31, max:   5.70012121E-31, mean:   5.70012121E-31, }
...

 Integrated electronic density in atomic spheres:
 ------------------------------------------------
 Atom  Sphere_radius  Integrated_density
    1        2.00000          9.91936338
    2        2.00000         11.23929462

---OUTPUT-----------------------------------------------------------------------

 Cartesian coordinates (xcart) [bohr]
  0.00000000000000E+00  0.00000000000000E+00  0.00000000000000E+00
  3.06000000000000E+00  3.06000000000000E+00  3.06000000000000E+00
 Reduced coordinates (xred)
  0.00000000000000E+00  0.00000000000000E+00  0.00000000000000E+00
  2.50000000000000E-01  2.50000000000000E-01  2.50000000000000E-01
 Cartesian forces (fcart) [Ha/bohr]; max,rms= 5.15595E-31 3.29097E-31 (free atoms)
  1.71865120963183E-31  1.71865120963183E-31 -5.15595362889550E-31
 -1.71865120963183E-31 -1.71865120963183E-31  5.15595362889550E-31
 Reduced forces (fred)
  2.10362908058937E-30  2.10362908058937E-30 -2.10362908058936E-30
 -2.10362908058937E-30 -2.10362908058937E-30  2.10362908058936E-30
 Scale of Primitive Cell (acell) [bohr]
  1.22400000000000E+01  1.22400000000000E+01  1.22400000000000E+01
 Real space primitive translations (rprimd) [bohr]
  0.00000000000000E+00  6.12000000000000E+00  6.12000000000000E+00
  6.12000000000000E+00  0.00000000000000E+00  6.12000000000000E+00
  6.12000000000000E+00  6.12000000000000E+00  0.00000000000000E+00
 Unitary Cell Volume (ucvol) [Bohr^3]=  4.58441856000000E+02
 Angles (23,13,12)= [degrees]
  6.00000000000000E+01  6.00000000000000E+01  6.00000000000000E+01
 Lengths [Bohr]
  8.65498700172334E+00  8.65498700172334E+00  8.65498700172334E+00
 Stress tensor in cartesian coordinates (strten) [Ha/bohr^3]
  2.15386897184080E-05  0.00000000000000E+00  0.00000000000000E+00
  0.00000000000000E+00  2.15386897184106E-05  0.00000000000000E+00
  0.00000000000000E+00  0.00000000000000E+00  2.15386897184106E-05
 Total energy (etotal) [Ha]= -1.56993582002664E+02

--- Iteration: (  2/100) Internal Cycle: (1/1)
--------------------------------------------------------------------------------

---SELF-CONSISTENT-FIELD CONVERGENCE--------------------------------------------

--- !BeginCycle
iteration_state: {dtset: 3, itime: 2, icycle: 1, }
solver: {iscf: 7, nstep: 100, nline: 4, wfoptalg: 0, }
tolerances: {tolvrs: 1.00E-16, }
...

     iter   Etot(hartree)      deltaE(h)  residm     vres2
 ETOT  1  -156.99350224548    -1.570E+02 3.733E-03 1.367E+00
 ETOT  2  -156.99359407190    -9.183E-05 1.338E-06 4.857E-02
 ETOT  3  -156.99359877209    -4.700E-06 2.809E-07 1.418E-02
 ETOT  4  -156.99359978679    -1.015E-06 4.266E-07 5.200E-04
 ETOT  5  -156.99359983967    -5.288E-08 3.996E-08 2.098E-05
 ETOT  6  -156.99359984101    -1.340E-09 3.404E-08 4.129E-07
 ETOT  7  -156.99359984106    -5.494E-11 1.083E-08 2.305E-08
 ETOT  8  -156.99359984107    -7.560E-12 1.067E-08 1.828E-09
 ETOT  9  -156.99359984107     1.648E-12 2.888E-09 4.013E-10
 ETOT 10  -156.99359984107    -6.395E-12 3.130E-09 7.235E-11
 ETOT 11  -156.99359984107     2.302E-12 7.734E-10 9.898E-13
 ETOT 12  -156.99359984107    -1.705E-13 8.800E-10 3.060E-13
 ETOT 13  -156.99359984107     1.876E-12 2.101E-10 5.208E-16
 ETOT 14  -156.99359984107    -1.762E-12 2.493E-10 1.366E-16
 ETOT 15  -156.99359984107     2.700E-12 5.769E-11 2.833E-16
 ETOT 16  -156.99359984107    -3.695E-13 7.085E-11 9.062E-18

 At SCF step   16       vres2   =  9.06E-18 < tolvrs=  1.00E-16 =>converged.

 Cartesian components of stress tensor (hartree/bohr^3)
  sigma(1 1)=  1.86542750E-05  sigma(3 2)=  0.00000000E+00
  sigma(2 2)=  1.86542750E-05  sigma(3 1)=  0.00000000E+00
  sigma(3 3)=  1.86542750E-05  sigma(2 1)=  0.00000000E+00


--- !ResultsGS
iteration_state: {dtset: 3, itime: 2, icycle: 1, }
comment   : Summary of ground state results
lattice_vectors:
- [  0.0000000,   6.1160455,   6.1160455, ]
- [  6.1160455,   0.0000000,   6.1160455, ]
- [  6.1160455,   6.1160455,   0.0000000, ]
lattice_lengths: [   8.64939,    8.64939,    8.64939, ]
lattice_angles: [ 60.000,  60.000,  60.000, ] # degrees, (23, 13, 12)
lattice_volume:   4.5755375E+02
convergence: {deltae: -3.695E-13, res2:  9.062E-18, residm:  7.085E-11, diffor: null, }
etotal    :  -1.56993600E+02
entropy   :   0.00000000E+00
fermie    :   1.56803863E-01
cartesian_stress_tensor: # hartree/bohr^3
- [  1.86542750E-05,   0.00000000E+00,   0.00000000E+00, ]
- [  0.00000000E+00,   1.86542750E-05,   0.00000000E+00, ]
- [  0.00000000E+00,   0.00000000E+00,   1.86542750E-05, ]
pressure_GPa:  -5.4883E-01
xred      :
- [ -4.2124E-32,  -4.2124E-32,   4.2124E-32, In]
- [  2.5000E-01,   2.5000E-01,   2.5000E-01, Sb]
cartesian_forces: # hartree/bohr
- [ -1.71976245E-31,  -2.52512982E-48,   1.71976245E-31, ]
- [  1.71976245E-31,   2.52512982E-48,  -1.71976245E-31, ]
force_length_stats: {min:   2.43211138E-31, max:   2.43211138E-31, mean:   2.43211138E-31, }
...

 Integrated electronic density in atomic spheres:
 ------------------------------------------------
 Atom  Sphere_radius  Integrated_density
    1        2.00000          9.91590707
    2        2.00000         11.24777926

---OUTPUT-----------------------------------------------------------------------

 Cartesian coordinates (xcart) [bohr]
 -7.12993863529763E-47 -7.12993863529763E-47 -5.15262205433304E-31
  3.05802274828385E+00  3.05802274828385E+00  3.05802274828385E+00
 Reduced coordinates (xred)
 -4.21238041576430E-32 -4.21238041576430E-32  4.21238041576430E-32
  2.50000000000000E-01  2.50000000000000E-01  2.50000000000000E-01
 Cartesian forces (fcart) [Ha/bohr]; max,rms= 1.71976E-31 1.40418E-31 (free atoms)
 -1.71976245252746E-31 -2.52512982248721E-48  1.71976245252746E-31
  1.71976245252746E-31  2.52512982248721E-48 -1.71976245252746E-31
 Reduced forces (fred)
 -1.05181454029468E-30  6.91043462412169E-47  1.05181454029468E-30
  1.05181454029468E-30 -6.91043462412169E-47 -1.05181454029468E-30
 Scale of Primitive Cell (acell) [bohr]
  1.22320909931354E+01  1.22320909931354E+01  1.22320909931354E+01
 Real space primitive translations (rprimd) [bohr]
  0.00000000000000E+00  6.11604549656770E+00  6.11604549656770E+00
  6.11604549656770E+00  0.00000000000000E+00  6.11604549656770E+00
  6.11604549656770E+00  6.11604549656770E+00  0.00000000000000E+00
 Unitary Cell Volume (ucvol) [Bohr^3]=  4.57553748787126E+02
 Angles (23,13,12)= [degrees]
  6.00000000000000E+01  6.00000000000000E+01  6.00000000000000E+01
 Lengths [Bohr]
  8.64939448933693E+00  8.64939448933693E+00  8.64939448933693E+00
 Stress tensor in cartesian coordinates (strten) [Ha/bohr^3]
  1.86542749749845E-05  0.00000000000000E+00  0.00000000000000E+00
  0.00000000000000E+00  1.86542749749828E-05  0.00000000000000E+00
  0.00000000000000E+00  0.00000000000000E+00  1.86542749749819E-05
 Total energy (etotal) [Ha]= -1.56993599841069E+02

 Difference of energy with previous step (new-old):
           Absolute (Ha)=-1.78384E-05
           Relative     =-1.13625E-07

--- Iteration: (  3/100) Internal Cycle: (1/1)
--------------------------------------------------------------------------------

---SELF-CONSISTENT-FIELD CONVERGENCE--------------------------------------------

--- !BeginCycle
iteration_state: {dtset: 3, itime: 3, icycle: 1, }
solver: {iscf: 7, nstep: 100, nline: 4, wfoptalg: 0, }
tolerances: {tolvrs: 1.00E-16, }
...

     iter   Etot(hartree)      deltaE(h)  residm     vres2
 ETOT  1  -156.98980745081    -1.570E+02 1.481E+00 5.467E+01
 ETOT  2  -156.99342360878    -3.616E-03 1.326E-04 1.981E+00
 ETOT  3  -156.99360909025    -1.855E-04 1.426E-05 5.729E-01
 ETOT  4  -156.99364963584    -4.055E-05 2.124E-05 2.045E-02
 ETOT  5  -156.99365177678    -2.141E-06 1.499E-06 8.215E-04
 ETOT  6  -156.99365182983    -5.304E-08 1.165E-06 1.635E-05
 ETOT  7  -156.99365183219    -2.360E-09 1.947E-07 9.097E-07
 ETOT  8  -156.99365183233    -1.417E-10 3.505E-07 7.148E-08
 ETOT  9  -156.99365183233    -8.527E-14 3.619E-08 1.493E-08
 ETOT 10  -156.99365183234    -8.896E-12 7.362E-08 2.803E-09
[...]


--- !EnergyTerms
iteration_state     : {dtset: 3, itime: 4, icycle: 1, }
comment             : Components of total free energy in Hartree
kinetic             :  9.46534291405191E+01
hartree             :  4.38884696266190E+01
xc                  : -4.21251496997594E+01
Ewald energy        : -8.69750848877890E+01
psp_core            :  3.20876055798725E+00
local_psp           : -1.35608792645357E+02
non_local_psp       : -3.40352839459050E+01
total_energy        : -1.56993651853685E+02
total_energy_eV     : -4.27201452417382E+03
band_energy         : -1.26231244170272E+01
...


 Cartesian components of stress tensor (hartree/bohr^3)
  sigma(1 1)=  8.33225080E-09  sigma(3 2)=  0.00000000E+00
  sigma(2 2)=  8.33225081E-09  sigma(3 1)=  0.00000000E+00
  sigma(3 3)=  8.33225081E-09  sigma(2 1)=  0.00000000E+00

-Cartesian components of stress tensor (GPa)         [Pressure= -2.4514E-04 GPa]
- sigma(1 1)=  2.45143241E-04  sigma(3 2)=  0.00000000E+00
- sigma(2 2)=  2.45143241E-04  sigma(3 1)=  0.00000000E+00
- sigma(3 3)=  2.45143241E-04  sigma(2 1)=  0.00000000E+00

== END DATASET(S) ==============================================================
================================================================================
  
 -outvars: echo values of variables after computation  --------
            acell1     1.2181587384E+01  1.2181587384E+01  1.2181587384E+01 Bohr
            acell2     1.2182493533E+01  1.2182493533E+01  1.2182493533E+01 Bohr
            acell3     1.2182745715E+01  1.2182745715E+01  1.2182745715E+01 Bohr
              amu      1.14820000E+02  1.21753000E+02
        autoparal           1
           diemac      1.60000000E+01
          dilatmx      1.05000000E+00
             ecut      3.60000000E+01 Hartree
           ecutsm      2.00000000E+00 Hartree
           etotal1    -1.5699346829E+02
           etotal2    -1.5699363608E+02
           etotal3    -1.5699365185E+02
            fcart1     5.1806772328E-31 -8.6344620547E-31 -1.7268924109E-31
                      -5.1806772328E-31  8.6344620547E-31  1.7268924109E-31
            fcart2     8.6338198127E-31  8.6338198127E-31 -2.5901459438E-30
                      -8.6338198127E-31 -8.6338198127E-31  2.5901459438E-30
            fcart3    -3.4534564371E-31  5.1801846556E-31  1.9389492567E-47
                       3.4534564371E-31 -5.1801846556E-31 -1.9389492567E-47
-          fftalg         312
           getwfk          -1
           ionmov          22
              ixc       -1012
           jdtset        1    2    3
              kpt1    -1.25000000E-01 -2.50000000E-01  0.00000000E+00
                      -1.25000000E-01  5.00000000E-01  0.00000000E+00
                      -2.50000000E-01 -3.75000000E-01  0.00000000E+00
                      -1.25000000E-01 -3.75000000E-01  1.25000000E-01
                      -1.25000000E-01  2.50000000E-01  0.00000000E+00
                      -2.50000000E-01  3.75000000E-01  0.00000000E+00
                      -3.75000000E-01  5.00000000E-01  0.00000000E+00
                      -2.50000000E-01  5.00000000E-01  1.25000000E-01
                      -1.25000000E-01  0.00000000E+00  0.00000000E+00
                      -3.75000000E-01  0.00000000E+00  0.00000000E+00
              kpt2    -8.33333333E-02 -1.66666667E-01  0.00000000E+00
                      -8.33333333E-02 -3.33333333E-01  0.00000000E+00
                      -1.66666667E-01 -2.50000000E-01  0.00000000E+00
                      -8.33333333E-02 -2.50000000E-01  8.33333333E-02
                      -8.33333333E-02  5.00000000E-01  0.00000000E+00
                      -1.66666667E-01 -4.16666667E-01  0.00000000E+00
                      -8.33333333E-02 -4.16666667E-01  8.33333333E-02
                      -2.50000000E-01 -3.33333333E-01  0.00000000E+00
                      -1.66666667E-01 -3.33333333E-01  8.33333333E-02
                      -8.33333333E-02 -3.33333333E-01  1.66666667E-01
                      -8.33333333E-02  3.33333333E-01  0.00000000E+00
                      -1.66666667E-01  4.16666667E-01  0.00000000E+00
                      -2.50000000E-01  5.00000000E-01  0.00000000E+00
                      -1.66666667E-01  5.00000000E-01  8.33333333E-02
                      -3.33333333E-01 -4.16666667E-01  0.00000000E+00
                      -2.50000000E-01 -4.16666667E-01  8.33333333E-02
                      -1.66666667E-01 -4.16666667E-01  1.66666667E-01
                      -8.33333333E-02 -4.16666667E-01  2.50000000E-01
                      -8.33333333E-02  1.66666667E-01  0.00000000E+00
                      -1.66666667E-01  2.50000000E-01  0.00000000E+00
                      -2.50000000E-01  3.33333333E-01  0.00000000E+00
                      -3.33333333E-01  4.16666667E-01  0.00000000E+00
                      -4.16666667E-01  5.00000000E-01  0.00000000E+00
                      -3.33333333E-01  5.00000000E-01  8.33333333E-02
                      -2.50000000E-01  5.00000000E-01  1.66666667E-01
                      -8.33333333E-02  0.00000000E+00  0.00000000E+00
                      -2.50000000E-01  0.00000000E+00  0.00000000E+00
                      -4.16666667E-01  0.00000000E+00  0.00000000E+00
              kpt3    -6.25000000E-02 -1.25000000E-01  0.00000000E+00
                      -6.25000000E-02 -2.50000000E-01  0.00000000E+00
                      -1.25000000E-01 -1.87500000E-01  0.00000000E+00
                      -6.25000000E-02 -1.87500000E-01  6.25000000E-02
                      -6.25000000E-02 -3.75000000E-01  0.00000000E+00
                      -1.25000000E-01 -3.12500000E-01  0.00000000E+00
                      -6.25000000E-02 -3.12500000E-01  6.25000000E-02
                      -1.87500000E-01 -2.50000000E-01  0.00000000E+00
                      -1.25000000E-01 -2.50000000E-01  6.25000000E-02
                      -6.25000000E-02 -2.50000000E-01  1.25000000E-01
                      -6.25000000E-02  5.00000000E-01  0.00000000E+00
                      -1.25000000E-01 -4.37500000E-01  0.00000000E+00
                      -6.25000000E-02 -4.37500000E-01  6.25000000E-02
                      -1.87500000E-01 -3.75000000E-01  0.00000000E+00
                      -1.25000000E-01 -3.75000000E-01  6.25000000E-02
                      -6.25000000E-02 -3.75000000E-01  1.25000000E-01
                      -2.50000000E-01 -3.12500000E-01  0.00000000E+00
                      -1.87500000E-01 -3.12500000E-01  6.25000000E-02
                      -1.25000000E-01 -3.12500000E-01  1.25000000E-01
                      -6.25000000E-02 -3.12500000E-01  1.87500000E-01
                      -6.25000000E-02  3.75000000E-01  0.00000000E+00
                      -1.25000000E-01  4.37500000E-01  0.00000000E+00
                      -1.87500000E-01  5.00000000E-01  0.00000000E+00
                      -1.25000000E-01  5.00000000E-01  6.25000000E-02
                      -2.50000000E-01 -4.37500000E-01  0.00000000E+00
                      -1.87500000E-01 -4.37500000E-01  6.25000000E-02
                      -1.25000000E-01 -4.37500000E-01  1.25000000E-01
                      -6.25000000E-02 -4.37500000E-01  1.87500000E-01
                      -3.12500000E-01 -3.75000000E-01  0.00000000E+00
                      -2.50000000E-01 -3.75000000E-01  6.25000000E-02
                      -1.87500000E-01 -3.75000000E-01  1.25000000E-01
                      -1.25000000E-01 -3.75000000E-01  1.87500000E-01
                      -6.25000000E-02 -3.75000000E-01  2.50000000E-01
                      -6.25000000E-02  2.50000000E-01  0.00000000E+00
                      -1.25000000E-01  3.12500000E-01  0.00000000E+00
                      -1.87500000E-01  3.75000000E-01  0.00000000E+00
                      -2.50000000E-01  4.37500000E-01  0.00000000E+00
                      -3.12500000E-01  5.00000000E-01  0.00000000E+00
                      -2.50000000E-01  5.00000000E-01  6.25000000E-02
                      -1.87500000E-01  5.00000000E-01  1.25000000E-01
                      -3.75000000E-01 -4.37500000E-01  0.00000000E+00
                      -3.12500000E-01 -4.37500000E-01  6.25000000E-02
                      -2.50000000E-01 -4.37500000E-01  1.25000000E-01
                      -1.87500000E-01 -4.37500000E-01  1.87500000E-01
                      -1.25000000E-01 -4.37500000E-01  2.50000000E-01
                      -6.25000000E-02 -4.37500000E-01  3.12500000E-01
                      -6.25000000E-02  1.25000000E-01  0.00000000E+00
                      -1.25000000E-01  1.87500000E-01  0.00000000E+00
                      -1.87500000E-01  2.50000000E-01  0.00000000E+00
                      -2.50000000E-01  3.12500000E-01  0.00000000E+00
                       outvar_i_n : Printing only first  50 k-points.
         kptrlatt1       4   -4    4     -4    4    4     -4   -4    4
         kptrlatt2       6   -6    6     -6    6    6     -6   -6    6
         kptrlatt3       8   -8    8     -8    8    8     -8   -8    8
          kptrlen1     4.89600000E+01
          kptrlen2     7.34400000E+01
          kptrlen3     9.79200000E+01
P           mkmem1          2
P           mkmem2          4
P           mkmem3          8
            natom           2
            nband1         15
            nband2         15
            nband3         15
           ndtset           3
            ngfft          50      50      50
             nkpt1         10
             nkpt2         28
             nkpt3         60
-           npkpt           8
            nstep         100
             nsym          24
            ntime         100
           ntypat           2
              occ1     2.000000  2.000000  2.000000  2.000000  2.000000  2.000000
                       2.000000  2.000000  2.000000  2.000000  2.000000  2.000000
                       2.000000  2.000000  0.000000
              occ2     2.000000  2.000000  2.000000  2.000000  2.000000  2.000000
                       2.000000  2.000000  2.000000  2.000000  2.000000  2.000000
                       2.000000  2.000000  0.000000
              occ3     2.000000  2.000000  2.000000  2.000000  2.000000  2.000000
                       2.000000  2.000000  2.000000  2.000000  2.000000  2.000000
                       2.000000  2.000000  0.000000
          optcell           1
            rprim      0.0000000000E+00  5.0000000000E-01  5.0000000000E-01
                       5.0000000000E-01  0.0000000000E+00  5.0000000000E-01
                       5.0000000000E-01  5.0000000000E-01  0.0000000000E+00
           shiftk      5.00000000E-01  5.00000000E-01  5.00000000E-01
          spgroup         216
           strten1     6.9868345614E-09  6.9868345606E-09  6.9868345597E-09
                       0.0000000000E+00  0.0000000000E+00  0.0000000000E+00
           strten2     8.4068264589E-09  8.4068264589E-09  8.4068264589E-09
                       0.0000000000E+00  0.0000000000E+00  0.0000000000E+00
           strten3     8.3322508043E-09  8.3322508069E-09  8.3322508060E-09
                       0.0000000000E+00  0.0000000000E+00  0.0000000000E+00
           symrel      1  0  0   0  1  0   0  0  1       0 -1  1   0 -1  0   1 -1  0
                      -1  0  0  -1  0  1  -1  1  0       0  1 -1   1  0 -1   0  0 -1
                      -1  0  0  -1  1  0  -1  0  1       0 -1  1   1 -1  0   0 -1  0
                       1  0  0   0  0  1   0  1  0       0  1 -1   0  0 -1   1  0 -1
                      -1  0  1  -1  1  0  -1  0  0       0 -1  0   1 -1  0   0 -1  1
                       1  0 -1   0  0 -1   0  1 -1       0  1  0   0  0  1   1  0  0
                       1  0 -1   0  1 -1   0  0 -1       0 -1  0   0 -1  1   1 -1  0
                      -1  0  1  -1  0  0  -1  1  0       0  1  0   1  0  0   0  0  1
                       0  0 -1   0  1 -1   1  0 -1       1 -1  0   0 -1  1   0 -1  0
                       0  0  1   1  0  0   0  1  0      -1  1  0  -1  0  0  -1  0  1
                       0  0  1   0  1  0   1  0  0       1 -1  0   0 -1  0   0 -1  1
                       0  0 -1   1  0 -1   0  1 -1      -1  1  0  -1  0  1  -1  0  0
           tolmxf      5.00000000E-06
           tolvrs      1.00000000E-16
            typat      1  2
              wtk1       0.09375    0.09375    0.09375    0.18750    0.09375    0.09375
                         0.09375    0.18750    0.03125    0.03125
              wtk2       0.02778    0.02778    0.02778    0.05556    0.02778    0.02778
                         0.05556    0.02778    0.05556    0.05556    0.02778    0.02778
                         0.02778    0.05556    0.02778    0.05556    0.05556    0.05556
                         0.02778    0.02778    0.02778    0.02778    0.02778    0.05556
                         0.05556    0.00926    0.00926    0.00926
              wtk3       0.01172    0.01172    0.01172    0.02344    0.01172    0.01172
                         0.02344    0.01172    0.02344    0.02344    0.01172    0.01172
                         0.02344    0.01172    0.02344    0.02344    0.01172    0.02344
                         0.02344    0.02344    0.01172    0.01172    0.01172    0.02344
                         0.01172    0.02344    0.02344    0.02344    0.01172    0.02344
                         0.02344    0.02344    0.02344    0.01172    0.01172    0.01172
                         0.01172    0.01172    0.02344    0.02344    0.01172    0.02344
                         0.02344    0.02344    0.02344    0.02344    0.01172    0.01172
                         0.01172    0.01172
                       outvars : Printing only first  50 k-points.
           xangst1     5.1714200363E-46  7.9067916488E-30  5.1714200363E-46
                       1.6115546020E+00  1.6115546020E+00  1.6115546020E+00
           xangst2     5.0722883467E-29  1.4555186515E-30 -6.8629388997E-30
                       1.6116744803E+00  1.6116744803E+00  1.6116744803E+00
           xangst3    -3.9480654541E-30 -9.1588719124E-47  1.1414309697E-29
                       1.6117078426E+00  1.6117078426E+00  1.6117078426E+00
            xcart1     9.7725675868E-46  1.4941670806E-29  9.7725675868E-46
                       3.0453968459E+00  3.0453968459E+00  3.0453968459E+00
            xcart2     9.5852358423E-29  2.7505316326E-30 -1.2969074987E-29
                       3.0456233831E+00  3.0456233831E+00  3.0456233831E+00
            xcart3    -7.4607624630E-30 -1.7307759601E-46  2.1569919324E-29
                       3.0456864288E+00  3.0456864288E+00  3.0456864288E+00
             xred      1.2265783051E-30 -1.2265783051E-30  1.2265783051E-30
                       2.5000000000E-01  2.5000000000E-01  2.5000000000E-01
            znucl       49.00000   51.00000

================================================================================


- Timing analysis has been suppressed with timopt=0



================================================================================

 Suggested references for the acknowledgment of ABINIT usage.

 The users of ABINIT have little formal obligations with respect to the ABINIT group
 (those specified in the GNU General Public License, http://www.gnu.org/copyleft/gpl.txt).
 However, it is common practice in the scientific literature,
 to acknowledge the efforts of people that have made the research possible.
 In this spirit, please find below suggested citations of work written by ABINIT developers,
 corresponding to implementations inside of ABINIT that you have used in the present run.
 Note also that it will be of great value to readers of publications presenting these results,
 to read papers enabling them to understand the theoretical formalism and details
 of the ABINIT implementation.
 For information on why they are suggested, see also https://docs.abinit.org/theory/acknowledgments.
-
- [1] Libxc: A library of exchange and correlation functionals for density functional theory.
- M.A.L. Marques, M.J.T. Oliveira, T. Burnus, Computer Physics Communications 183, 2227 (2012).
- Comment: to be cited when LibXC is used (negative value of ixc)
- Strong suggestion to cite this paper.
- DOI and bibtex: see https://docs.abinit.org/theory/bibliography/#marques2012
-
- [2] The Abinit project: Impact, environment and recent developments.
- Computer Phys. Comm. 248, 107042 (2020).
- X.Gonze, B. Amadon, G. Antonius, F.Arnardi, L.Baguet, J.-M.Beuken,
- J.Bieder, F.Bottin, J.Bouchet, E.Bousquet, N.Brouwer, F.Bruneval,
- G.Brunin, T.Cavignac, J.-B. Charraud, Wei Chen, M.Cote, S.Cottenier,
- J.Denier, G.Geneste, Ph.Ghosez, M.Giantomassi, Y.Gillet, O.Gingras,
- D.R.Hamann, G.Hautier, Xu He, N.Helbig, N.Holzwarth, Y.Jia, F.Jollet,
- W.Lafargue-Dit-Hauret, K.Lejaeghere, M.A.L.Marques, A.Martin, C.Martins,
- H.P.C. Miranda, F.Naccarato, K. Persson, G.Petretto, V.Planes, Y.Pouillon,
- S.Prokhorenko, F.Ricci, G.-M.Rignanese, A.H.Romero, M.M.Schmitt, M.Torrent,
- M.J.van Setten, B.Van Troeye, M.J.Verstraete, G.Zerah and J.W.Zwanzig
- Comment: the fifth generic paper describing the ABINIT project.
- Note that a version of this paper, that is not formatted for Computer Phys. Comm. 
- is available at https://www.abinit.org/sites/default/files/ABINIT20.pdf .
- The licence allows the authors to put it on the Web.
- DOI and bibtex: see https://docs.abinit.org/theory/bibliography/#gonze2020
-
- [3] Optimized norm-conserving Vanderbilt pseudopotentials.
- D.R. Hamann, Phys. Rev. B 88, 085117 (2013).
- Comment: Some pseudopotential generated using the ONCVPSP code were used.
- DOI and bibtex: see https://docs.abinit.org/theory/bibliography/#hamann2013
-
- [4] ABINIT: Overview, and focus on selected capabilities
- J. Chem. Phys. 152, 124102 (2020).
- A. Romero, D.C. Allan, B. Amadon, G. Antonius, T. Applencourt, L.Baguet,
- J.Bieder, F.Bottin, J.Bouchet, E.Bousquet, F.Bruneval,
- G.Brunin, D.Caliste, M.Cote,
- J.Denier, C. Dreyer, Ph.Ghosez, M.Giantomassi, Y.Gillet, O.Gingras,
- D.R.Hamann, G.Hautier, F.Jollet, G. Jomard,
- A.Martin, 
- H.P.C. Miranda, F.Naccarato, G.Petretto, N.A. Pike, V.Planes,
- S.Prokhorenko, T. Rangel, F.Ricci, G.-M.Rignanese, M.Royo, M.Stengel, M.Torrent,
- M.J.van Setten, B.Van Troeye, M.J.Verstraete, J.Wiktor, J.W.Zwanziger, and X.Gonze.
- Comment: a global overview of ABINIT, with focus on selected capabilities .
- Note that a version of this paper, that is not formatted for J. Chem. Phys 
- is available at https://www.abinit.org/sites/default/files/ABINIT20_JPC.pdf .
- The licence allows the authors to put it on the Web.
- DOI and bibtex: see https://docs.abinit.org/theory/bibliography/#romero2020
-
- [5] Recent developments in the ABINIT software package.
- Computer Phys. Comm. 205, 106 (2016).
- X.Gonze, F.Jollet, F.Abreu Araujo, D.Adams, B.Amadon, T.Applencourt,
- C.Audouze, J.-M.Beuken, J.Bieder, A.Bokhanchuk, E.Bousquet, F.Bruneval
- D.Caliste, M.Cote, F.Dahm, F.Da Pieve, M.Delaveau, M.Di Gennaro,
- B.Dorado, C.Espejo, G.Geneste, L.Genovese, A.Gerossier, M.Giantomassi,
- Y.Gillet, D.R.Hamann, L.He, G.Jomard, J.Laflamme Janssen, S.Le Roux,
- A.Levitt, A.Lherbier, F.Liu, I.Lukacevic, A.Martin, C.Martins,
- M.J.T.Oliveira, S.Ponce, Y.Pouillon, T.Rangel, G.-M.Rignanese,
- A.H.Romero, B.Rousseau, O.Rubel, A.A.Shukri, M.Stankovski, M.Torrent,
- M.J.Van Setten, B.Van Troeye, M.J.Verstraete, D.Waroquier, J.Wiktor,
- B.Xu, A.Zhou, J.W.Zwanziger.
- Comment: the fourth generic paper describing the ABINIT project.
- Note that a version of this paper, that is not formatted for Computer Phys. Comm. 
- is available at https://www.abinit.org/sites/default/files/ABINIT16.pdf .
- The licence allows the authors to put it on the Web.
- DOI and bibtex: see https://docs.abinit.org/theory/bibliography/#gonze2016
-
- Proc.   0 individual time (sec): cpu=        639.4  wall=        809.1

================================================================================

 Calculation completed.
.Delivered   0 WARNINGs and   0 COMMENTs to log file.
+Overall time at end (sec) : cpu=       4838.7  wall=       6473.0
